# vtk DataFile Version 3.0
particle point data
ASCII
DATASET STRUCTURED_GRID
DIMENSIONS 143 143 2
POINTS 40898 double
0.00000000 0.00000000 0.00000000
0.00714286 0.00000000 0.00000000
0.01428571 0.00000000 0.00000000
0.02142857 0.00000000 0.00000000
0.02857143 0.00000000 0.00000000
0.03571429 0.00000000 0.00000000
0.04285714 0.00000000 0.00000000
0.05000000 0.00000000 0.00000000
0.05714286 0.00000000 0.00000000
0.06428571 0.00000000 0.00000000
0.07142857 0.00000000 0.00000000
0.07857143 0.00000000 0.00000000
0.08571429 0.00000000 0.00000000
0.09285714 0.00000000 0.00000000
0.10000000 0.00000000 0.00000000
0.10714286 0.00000000 0.00000000
0.11428571 0.00000000 0.00000000
0.12142857 0.00000000 0.00000000
0.12857143 0.00000000 0.00000000
0.13571429 0.00000000 0.00000000
0.14285714 0.00000000 0.00000000
0.15000000 0.00000000 0.00000000
0.15714286 0.00000000 0.00000000
0.16428571 0.00000000 0.00000000
0.17142857 0.00000000 0.00000000
0.17857143 0.00000000 0.00000000
0.18571429 0.00000000 0.00000000
0.19285714 0.00000000 0.00000000
0.20000000 0.00000000 0.00000000
0.20714286 0.00000000 0.00000000
0.21428571 0.00000000 0.00000000
0.22142857 0.00000000 0.00000000
0.22857143 0.00000000 0.00000000
0.23571429 0.00000000 0.00000000
0.24285714 0.00000000 0.00000000
0.25000000 0.00000000 0.00000000
0.25714286 0.00000000 0.00000000
0.26428571 0.00000000 0.00000000
0.27142857 0.00000000 0.00000000
0.27857143 0.00000000 0.00000000
0.28571429 0.00000000 0.00000000
0.29285714 0.00000000 0.00000000
0.30000000 0.00000000 0.00000000
0.30714286 0.00000000 0.00000000
0.31428571 0.00000000 0.00000000
0.32142857 0.00000000 0.00000000
0.32857143 0.00000000 0.00000000
0.33571429 0.00000000 0.00000000
0.34285714 0.00000000 0.00000000
0.35000000 0.00000000 0.00000000
0.35714286 0.00000000 0.00000000
0.36428571 0.00000000 0.00000000
0.37142857 0.00000000 0.00000000
0.37857143 0.00000000 0.00000000
0.38571429 0.00000000 0.00000000
0.39285714 0.00000000 0.00000000
0.40000000 0.00000000 0.00000000
0.40714286 0.00000000 0.00000000
0.41428571 0.00000000 0.00000000
0.42142857 0.00000000 0.00000000
0.42857143 0.00000000 0.00000000
0.43571429 0.00000000 0.00000000
0.44285714 0.00000000 0.00000000
0.45000000 0.00000000 0.00000000
0.45714286 0.00000000 0.00000000
0.46428571 0.00000000 0.00000000
0.47142857 0.00000000 0.00000000
0.47857143 0.00000000 0.00000000
0.48571429 0.00000000 0.00000000
0.49285714 0.00000000 0.00000000
0.50000000 0.00000000 0.00000000
0.50714286 0.00000000 0.00000000
0.51428571 0.00000000 0.00000000
0.52142857 0.00000000 0.00000000
0.52857143 0.00000000 0.00000000
0.53571429 0.00000000 0.00000000
0.54285714 0.00000000 0.00000000
0.55000000 0.00000000 0.00000000
0.55714286 0.00000000 0.00000000
0.56428571 0.00000000 0.00000000
0.57142857 0.00000000 0.00000000
0.57857143 0.00000000 0.00000000
0.58571429 0.00000000 0.00000000
0.59285714 0.00000000 0.00000000
0.60000000 0.00000000 0.00000000
0.60714286 0.00000000 0.00000000
0.61428571 0.00000000 0.00000000
0.62142857 0.00000000 0.00000000
0.62857143 0.00000000 0.00000000
0.63571429 0.00000000 0.00000000
0.64285714 0.00000000 0.00000000
0.65000000 0.00000000 0.00000000
0.65714286 0.00000000 0.00000000
0.66428571 0.00000000 0.00000000
0.67142857 0.00000000 0.00000000
0.67857143 0.00000000 0.00000000
0.68571429 0.00000000 0.00000000
0.69285714 0.00000000 0.00000000
0.70000000 0.00000000 0.00000000
0.70714286 0.00000000 0.00000000
0.71428571 0.00000000 0.00000000
0.72142857 0.00000000 0.00000000
0.72857143 0.00000000 0.00000000
0.73571429 0.00000000 0.00000000
0.74285714 0.00000000 0.00000000
0.75000000 0.00000000 0.00000000
0.75714286 0.00000000 0.00000000
0.76428571 0.00000000 0.00000000
0.77142857 0.00000000 0.00000000
0.77857143 0.00000000 0.00000000
0.78571429 0.00000000 0.00000000
0.79285714 0.00000000 0.00000000
0.80000000 0.00000000 0.00000000
0.80714286 0.00000000 0.00000000
0.81428571 0.00000000 0.00000000
0.82142857 0.00000000 0.00000000
0.82857143 0.00000000 0.00000000
0.83571429 0.00000000 0.00000000
0.84285714 0.00000000 0.00000000
0.85000000 0.00000000 0.00000000
0.85714286 0.00000000 0.00000000
0.86428571 0.00000000 0.00000000
0.87142857 0.00000000 0.00000000
0.87857143 0.00000000 0.00000000
0.88571429 0.00000000 0.00000000
0.89285714 0.00000000 0.00000000
0.90000000 0.00000000 0.00000000
0.90714286 0.00000000 0.00000000
0.91428571 0.00000000 0.00000000
0.92142857 0.00000000 0.00000000
0.92857143 0.00000000 0.00000000
0.93571429 0.00000000 0.00000000
0.94285714 0.00000000 0.00000000
0.95000000 0.00000000 0.00000000
0.95714286 0.00000000 0.00000000
0.96428571 0.00000000 0.00000000
0.97142857 0.00000000 0.00000000
0.97857143 0.00000000 0.00000000
0.98571429 0.00000000 0.00000000
0.99285714 0.00000000 0.00000000
1.00000000 0.00000000 0.00000000
1.00714286 0.00000000 0.00000000
1.01428571 0.00000000 0.00000000
0.00000000 0.00714286 0.00000000
0.00714286 0.00714286 0.00000000
0.01428571 0.00714286 0.00000000
0.02142857 0.00714286 0.00000000
0.02857143 0.00714286 0.00000000
0.03571429 0.00714286 0.00000000
0.04285714 0.00714286 0.00000000
0.05000000 0.00714286 0.00000000
0.05714286 0.00714286 0.00000000
0.06428571 0.00714286 0.00000000
0.07142857 0.00714286 0.00000000
0.07857143 0.00714286 0.00000000
0.08571429 0.00714286 0.00000000
0.09285714 0.00714286 0.00000000
0.10000000 0.00714286 0.00000000
0.10714286 0.00714286 0.00000000
0.11428571 0.00714286 0.00000000
0.12142857 0.00714286 0.00000000
0.12857143 0.00714286 0.00000000
0.13571429 0.00714286 0.00000000
0.14285714 0.00714286 0.00000000
0.15000000 0.00714286 0.00000000
0.15714286 0.00714286 0.00000000
0.16428571 0.00714286 0.00000000
0.17142857 0.00714286 0.00000000
0.17857143 0.00714286 0.00000000
0.18571429 0.00714286 0.00000000
0.19285714 0.00714286 0.00000000
0.20000000 0.00714286 0.00000000
0.20714286 0.00714286 0.00000000
0.21428571 0.00714286 0.00000000
0.22142857 0.00714286 0.00000000
0.22857143 0.00714286 0.00000000
0.23571429 0.00714286 0.00000000
0.24285714 0.00714286 0.00000000
0.25000000 0.00714286 0.00000000
0.25714286 0.00714286 0.00000000
0.26428571 0.00714286 0.00000000
0.27142857 0.00714286 0.00000000
0.27857143 0.00714286 0.00000000
0.28571429 0.00714286 0.00000000
0.29285714 0.00714286 0.00000000
0.30000000 0.00714286 0.00000000
0.30714286 0.00714286 0.00000000
0.31428571 0.00714286 0.00000000
0.32142857 0.00714286 0.00000000
0.32857143 0.00714286 0.00000000
0.33571429 0.00714286 0.00000000
0.34285714 0.00714286 0.00000000
0.35000000 0.00714286 0.00000000
0.35714286 0.00714286 0.00000000
0.36428571 0.00714286 0.00000000
0.37142857 0.00714286 0.00000000
0.37857143 0.00714286 0.00000000
0.38571429 0.00714286 0.00000000
0.39285714 0.00714286 0.00000000
0.40000000 0.00714286 0.00000000
0.40714286 0.00714286 0.00000000
0.41428571 0.00714286 0.00000000
0.42142857 0.00714286 0.00000000
0.42857143 0.00714286 0.00000000
0.43571429 0.00714286 0.00000000
0.44285714 0.00714286 0.00000000
0.45000000 0.00714286 0.00000000
0.45714286 0.00714286 0.00000000
0.46428571 0.00714286 0.00000000
0.47142857 0.00714286 0.00000000
0.47857143 0.00714286 0.00000000
0.48571429 0.00714286 0.00000000
0.49285714 0.00714286 0.00000000
0.50000000 0.00714286 0.00000000
0.50714286 0.00714286 0.00000000
0.51428571 0.00714286 0.00000000
0.52142857 0.00714286 0.00000000
0.52857143 0.00714286 0.00000000
0.53571429 0.00714286 0.00000000
0.54285714 0.00714286 0.00000000
0.55000000 0.00714286 0.00000000
0.55714286 0.00714286 0.00000000
0.56428571 0.00714286 0.00000000
0.57142857 0.00714286 0.00000000
0.57857143 0.00714286 0.00000000
0.58571429 0.00714286 0.00000000
0.59285714 0.00714286 0.00000000
0.60000000 0.00714286 0.00000000
0.60714286 0.00714286 0.00000000
0.61428571 0.00714286 0.00000000
0.62142857 0.00714286 0.00000000
0.62857143 0.00714286 0.00000000
0.63571429 0.00714286 0.00000000
0.64285714 0.00714286 0.00000000
0.65000000 0.00714286 0.00000000
0.65714286 0.00714286 0.00000000
0.66428571 0.00714286 0.00000000
0.67142857 0.00714286 0.00000000
0.67857143 0.00714286 0.00000000
0.68571429 0.00714286 0.00000000
0.69285714 0.00714286 0.00000000
0.70000000 0.00714286 0.00000000
0.70714286 0.00714286 0.00000000
0.71428571 0.00714286 0.00000000
0.72142857 0.00714286 0.00000000
0.72857143 0.00714286 0.00000000
0.73571429 0.00714286 0.00000000
0.74285714 0.00714286 0.00000000
0.75000000 0.00714286 0.00000000
0.75714286 0.00714286 0.00000000
0.76428571 0.00714286 0.00000000
0.77142857 0.00714286 0.00000000
0.77857143 0.00714286 0.00000000
0.78571429 0.00714286 0.00000000
0.79285714 0.00714286 0.00000000
0.80000000 0.00714286 0.00000000
0.80714286 0.00714286 0.00000000
0.81428571 0.00714286 0.00000000
0.82142857 0.00714286 0.00000000
0.82857143 0.00714286 0.00000000
0.83571429 0.00714286 0.00000000
0.84285714 0.00714286 0.00000000
0.85000000 0.00714286 0.00000000
0.85714286 0.00714286 0.00000000
0.86428571 0.00714286 0.00000000
0.87142857 0.00714286 0.00000000
0.87857143 0.00714286 0.00000000
0.88571429 0.00714286 0.00000000
0.89285714 0.00714286 0.00000000
0.90000000 0.00714286 0.00000000
0.90714286 0.00714286 0.00000000
0.91428571 0.00714286 0.00000000
0.92142857 0.00714286 0.00000000
0.92857143 0.00714286 0.00000000
0.93571429 0.00714286 0.00000000
0.94285714 0.00714286 0.00000000
0.95000000 0.00714286 0.00000000
0.95714286 0.00714286 0.00000000
0.96428571 0.00714286 0.00000000
0.97142857 0.00714286 0.00000000
0.97857143 0.00714286 0.00000000
0.98571429 0.00714286 0.00000000
0.99285714 0.00714286 0.00000000
1.00000000 0.00714286 0.00000000
1.00714286 0.00714286 0.00000000
1.01428571 0.00714286 0.00000000
0.00000000 0.01428571 0.00000000
0.00714286 0.01428571 0.00000000
0.01428571 0.01428571 0.00000000
0.02142857 0.01428571 0.00000000
0.02857143 0.01428571 0.00000000
0.03571429 0.01428571 0.00000000
0.04285714 0.01428571 0.00000000
0.05000000 0.01428571 0.00000000
0.05714286 0.01428571 0.00000000
0.06428571 0.01428571 0.00000000
0.07142857 0.01428571 0.00000000
0.07857143 0.01428571 0.00000000
0.08571429 0.01428571 0.00000000
[...]
CELL_DATA 20164
SCALARS pressure double 
 LOOKUP_TABLE default
0.00000000
0.00000000
0.00000000
0.00000000
0.00000000
0.00000000
0.00000000
0.00000000
0.00000000
0.00000000
0.00000000
0.00000000
0.00000000
0.00000000
0.00000000
0.00000000
0.00000000
0.00000000
0.00000000
0.00000000
0.00000000
0.00000000
0.00000000
0.00000000
0.00000000
0.00000000
0.00000000
0.00000000
0.00000000
0.00000000
0.00000000
0.00000000
0.00000000
0.00000000
0.00000000
0.00000000
0.00000000
0.00000000
0.00000000
0.00000000
0.00000000
0.00000000
0.00000000
0.00000000
0.00000000
0.00000000
0.00000000
0.00000000
0.00000000
0.00000000
0.00000000
0.00000000
0.00000000
0.00000000
0.00000000
0.00000000
0.00000000
0.00000000
0.00000000
0.00000000
0.00000000
0.00000000
0.00000000
0.00000000
0.00000000
0.00000000
0.00000000
0.00000000
0.00000000
0.00000000
0.00000000
0.00000000
0.00000000
0.00000000
0.00000000
0.00000000
0.00000000
0.00000000
0.00000000
0.00000000
0.00000000
0.00000000
0.00000000
0.00000000
0.00000000
0.00000000
0.00000000
0.00000000
0.00000000
0.00000000
0.00000000
0.00000000
0.00000000
0.00000000
0.00000000
0.00000000
0.00000000
0.00000000
0.00000000
0.00000000
0.00000000
0.00000000
0.00000000
0.00000000
0.00000000
0.00000000
0.00000000
0.00000000
0.00000000
0.00000000
0.00000000
0.00000000
0.00000000
0.00000000
0.00000000
0.00000000
0.00000000
0.00000000
0.00000000
0.00000000
0.00000000
0.00000000
0.00000000
0.00000000
0.00000000
0.00000000
0.00000000
0.00000000
0.00000000
0.00000000
0.00000000
0.00000000
0.00000000
0.00000000
0.00000000
0.00000000
0.00000000
0.00000000
0.00000000
0.00000000
0.00000000
0.00000000
0.00000000
0.03589439
0.03590179
0.03590563
0.03590129
0.03588702
0.03586258
0.03582847
0.03578551
0.03573464
0.03567679
0.03561285
0.03554361
0.03546976
0.03539193
0.03531062
0.03522626
0.03513921
0.03504976
0.03495815
0.03486457
0.03476918
0.03467213
0.03457354
0.03447352
0.03437218
0.03426965
0.03416606
0.03406154
0.03395627
0.03385041
0.03374419
0.03363782
0.03353156
0.03342569
0.03332052
0.03321638
0.03311363
0.03301264
0.03291383
0.03281762
0.03272445
0.03263480
0.03254914
0.03246795
0.03239176
0.03232105
0.03225633
0.03219813
0.03214693
0.03210322
0.03206748
0.03204016
0.03202169
0.03201245
0.03201281
0.03202307
0.03204350
0.03207429
0.03211559
0.03216747
0.03222995
0.03230293
0.03238626
0.03247970
0.03258292
0.03269549
0.03281689
0.03294651
0.03308365
0.03322749
0.03337717
0.03353169
0.03369001
0.03385100
0.03401346
0.03417612
0.03433770
0.03449685
0.03465219
0.03480235
0.03494594
0.03508161
0.03520802
0.03532387
0.03542794
0.03551906
0.03559616
0.03565827
0.03570453
0.03573422
0.03574673
0.03574161
0.03571856
0.03567742
0.03561821
0.03554108
0.03544636
0.03533453
0.03520621
0.03506215
0.03490327
0.03473057
0.03454519
0.03434833
0.03414129
0.03392545
0.03370221
0.03347303
0.03323936
0.03300267
0.03276442
0.03252604
0.03228893
0.03205443
0.03182383
0.03159836
0.03137917
0.03116735
0.03096390
0.03076976
0.03058577
0.03041273
0.03025134
0.03010225
0.02996605
0.02984327
0.02973436
0.02963973
0.02955973
0.02949459
0.02944446
0.02940932
0.02938893
0.02938272
0.02938961
0.02940783
0.02943446
0.02946498
0.02949263
0.02950816
0.00000000
0.00000000
0.03588698
0.03589439
0.03589618
0.03589035
0.03587584
0.03585239
0.03582029
0.03578010
0.03573254
0.03567837
0.03561831
0.03555307
0.03548326
0.03540944
0.03533208
0.03525159
0.03516831
0.03508253
0.03499449
0.03490439
0.03481240
0.03471868
0.03462335
0.03452653
0.03442836
0.03432895
0.03422845
0.03412700
0.03402476
0.03392191
0.03381866
0.03371522
0.03361184
0.03350879
0.03340638
0.03330490
0.03320472
0.03310618
0.03300969
0.03291564
0.03282446
0.03273660
0.03265251
0.03257266
0.03249754
0.03242762
0.03236339
0.03230534
0.03225395
0.03220969
0.03217300
0.03214433
0.03212408
0.03211264
0.03211034
0.03211748
0.03213431
0.03216105
0.03219781
0.03224468
0.03230167
0.03236870
0.03244564
0.03253224
0.03262819
0.03273310
0.03284646
0.03296770
0.03309613
0.03323101
0.03337147
0.03351660
0.03366537
0.03381672
0.03396948
0.03412248
0.03427444
0.03442410
0.03457014
0.03471124
0.03484607
0.03497334
0.03509176
0.03520010
0.03529717
0.03538188
0.03545319
0.03551018
0.03555203
0.03557805
0.03558765
0.03558042
0.03555605
0.03551443
0.03545554
0.03537956
0.03528680
0.03517771
0.03505290
0.03491311
0.03475919
0.03459211
0.03441296
0.03422291
0.03402319
0.03381512
0.03360004
0.03337934
0.03315442
0.03292668
0.03269752
0.03246830
0.03224035
0.03201496
0.03179335
0.03157671
0.03136612
0.03116263
0.03096718
0.03078067
0.03060390
0.03043761
0.03028247
0.03013907
0.03000795
0.02988958
0.02978437
0.02969265
0.02961467
0.02955059
0.02950045
0.02946412
0.02944125
0.02943115
0.02943273
0.02944428
0.02946327
0.02948613
0.02950815
0.02952368
0.00000000
0.00000000
0.03588317
0.03589262
0.03589435
0.03588809
0.03587359
0.03585086
0.03582019
0.03578206
0.03573706
0.03568582
0.03562896
0.03556709
0.03550077
0.03543048
0.03535665
0.03527968
0.03519988
0.03511752
0.03503285
0.03494605
0.03485731
0.03476676
0.03467456
0.03458082
0.03448567
0.03438925
0.03429168
0.03419311
0.03409371
0.03399365
0.03389313
0.03379236
0.03369158
0.03359105
0.03349105
0.03339189
0.03329389
0.03319740
0.03310280
0.03301047
0.03292081
0.03283427
0.03275127
0.03267226
0.03259770
0.03252807
0.03246382
0.03240544
0.03235337
0.03230807
0.03226999
0.03223954
0.03221713
0.03220311
0.03219784
0.03220160
0.03221463
0.03223715
0.03226929
0.03231114
0.03236270
0.03242392
0.03249467
0.03257474
0.03266382
0.03276154
0.03286743
0.03298094
0.03310143
0.03322816
0.03336033
0.03349704
0.03363732
0.03378014
0.03392440
0.03406894
0.03421255
0.03435400
0.03449202
0.03462535
0.03475270
0.03487281
0.03498446
0.03508644
0.03517761
0.03525691
0.03532335
0.03537603
0.03541416
0.03543707
0.03544421
0.03543516
0.03540965
0.03536755
0.03530887
0.03523376
0.03514254
0.03503565
0.03491368
0.03477733
0.03462745
0.03446498
0.03429096
0.03410653
0.03391288
0.03371128
0.03350303
0.03328947
0.03307195
0.03285182
0.03263042
0.03240905
0.03218901
0.03197152
0.03175776
0.03154886
0.03134586
0.03114974
0.03096142
0.03078173
0.03061144
0.03045123
0.03030172
0.03016347
0.03003696
0.02992260
0.02982074
0.02973166
0.02965555
0.02959250
0.02954249
0.02950534
0.02948066
0.02946782
0.02946582
0.02947325
0.02948818
0.02950811
0.02953014
0.02955135
0.00000000
0.00000000
0.03588768
0.03589856
0.03590050
0.03589406
0.03587955
0.03585725
0.03582754
0.03579089
0.03574781
0.03569888
0.03564462
0.03558557
0.03552223
0.03545502
0.03538435
0.03531055
0.03523394
0.03515475
0.03507322
0.03498954
0.03490386
0.03481634
0.03472710
0.03463629
0.03454401
0.03445040
0.03435559
0.03425972
0.03416295
0.03406546
0.03396742
0.03386904
0.03377056
0.03367222
0.03357430
0.03347708
0.03338087
0.03328602
0.03319287
0.03310180
0.03301321
0.03292749
0.03284508
0.03276640
0.03269191
0.03262205
0.03255727
0.03249804
0.03244479
0.03239799
0.03235805
0.03232539
0.03230040
0.03228345
0.03227488
0.03227497
0.03228398
0.03230212
0.03232953
0.03236631
0.03241248
0.03246800
0.03253275
0.03260654
0.03268911
0.03278008
0.03287902
0.03298541
0.03309864
0.03321799
0.03334271
0.03347192
0.03360470
0.03374004
0.03387688
0.03401409
0.03415052
0.03428495
0.03441617
0.03454293
0.03466398
0.03477812
0.03488412
0.03498082
0.03506712
0.03514197
0.03520440
0.03525355
0.03528863
0.03530899
0.03531410
0.03530356
0.03527709
0.03523456
0.03517600
0.03510156
0.03501154
0.03490639
0.03478666
0.03465307
0.03450643
0.03434766
0.03417779
0.03399792
0.03380923
0.03361293
0.03341032
0.03320267
0.03299132
0.03277756
0.03256269
0.03234799
0.03213470
0.03192400
0.03171702
0.03151484
0.03131847
0.03112884
0.03094681
0.03077318
0.03060867
0.03045391
0.03030947
0.03017587
0.03005353
0.02994281
0.02984402
0.02975739
0.02968305
0.02962106
0.02957137
0.02953380
0.02950800
0.02949344
0.02948933
0.02949463
0.02950801
0.02952797
0.02955296
0.02958188
0.00000000
0.00000000
0.03590248
0.03591342
0.03591501
0.03590810
0.03589329
0.03587105
0.03584184
0.03580614
0.03576445
0.03571726
0.03566507
0.03560835
0.03554753
0.03548300
0.03541510
0.03534416
0.03527044
0.03519418
0.03511557
0.03503478
0.03495198
0.03486730
0.03478087
0.03469280
0.03460321
0.03451222
0.03441997
0.03432659
0.03423222
0.03413703
0.03404120
0.03394493
0.03384843
0.03375194
0.03365572
0.03356005
0.03346523
0.03337158
0.03327943
0.03318916
0.03310113
0.03301573
0.03293339
0.03285452
0.03277955
0.03270893
0.03264308
0.03258247
0.03252754
0.03247872
0.03243644
0.03240111
0.03237312
0.03235285
0.03234062
0.03233674
0.03234147
0.03235503
0.03237757
0.03240921
0.03244999
0.03249988
0.03255878
0.03262653
0.03270288
0.03278749
0.03287996
0.03297977
0.03308636
0.03319904
0.03331708
0.03343964
0.03356581
0.03369463
0.03382506
0.03395601
0.03408633
0.03421486
0.03434039
0.03446170
0.03457758
0.03468682
0.03478824
0.03488070
0.03496309
0.03503439
0.03509365
0.03514001
0.03517270
0.03519108
0.03519462
0.03518292
0.03515572
0.03511289
0.03505444
0.03498054
0.03489148
0.03478769
0.03466975
0.03453833
0.03439426
0.03423844
0.03407187
0.03389565
0.03371094
0.03351893
0.03332088
0.03311807
0.03291178
0.03270329
0.03249386
0.03228475
0.03207714
0.03187220
0.03167102
0.03147463
0.03128400
0.03110002
0.03092352
0.03075524
0.03059584
0.03044594
0.03030605
0.03017663
0.03005806
0.02995066
0.02985469
0.02977033
0.02969770
0.02963683
0.02958767
0.02955006
0.02952373
0.02950828
0.02950317
0.02950772
0.02952116
0.02954271
0.02957183
0.02960848
0.00000000
0.00000000
0.03592802
0.03593763
0.03593799
0.03593004
0.03591446
0.03589182
0.03586264
0.03582740
0.03578659
0.03574067
0.03569008
0.03563524
0.03557652
0.03551428
0.03544882
0.03538042
0.03530931
0.03523570
0.03515977
0.03508167
0.03500154
0.03491950
0.03483566
0.03475014
0.03466303
0.03457446
0.03448454
0.03439339
0.03430116
0.03420800
0.03411408
0.03401958
0.03392472
0.03382971
0.03373480
0.03364026
0.03354638
0.03345346
0.03336183
0.03327184
0.03318385
0.03309825
0.03301543
0.03293580
0.03285979
0.03278783
0.03272036
0.03265781
0.03260063
0.03254926
0.03250412
0.03246563
0.03243418
0.03241015
0.03239389
0.03238570
0.03238586
0.03239461
0.03241211
0.03243850
0.03247384
0.03251812
0.03257128
0.03263316
0.03270355
0.03278214
0.03286853
0.03296226
0.03306277
0.03316942
0.03328148
0.03339815
0.03351855
0.03364173
0.03376668
0.03389233
0.03401755
0.03414120
0.03426208
0.03437899
0.03449074
0.03459612
0.03469397
0.03478314
0.03486255
0.03493118
0.03498808
0.03503240
0.03506336
0.03508034
0.03508279
0.03507033
0.03504269
0.03499973
0.03494148
0.03486808
0.03477984
0.03467719
0.03456069
0.03443102
0.03428898
0.03413549
0.03397155
0.03379822
0.03361666
0.03342808
0.03323369
0.03303477
0.03283258
0.03262838
0.03242343
0.03221893
0.03201607
0.03181596
0.03161967
0.03142821
0.03124251
0.03106341
0.03089171
0.03072811
0.03057323
0.03042763
0.03029178
0.03016610
0.03005093
0.02994655
0.02985317
0.02977094
0.02969996
0.02964026
0.02959179
0.02955444
0.02952804
0.02951233
0.02950699
0.02951166
0.02952600
0.02954980
0.02958311
0.02962653
0.00000000
0.00000000
0.03596405
0.03597106
0.03596929
0.03595960
0.03594268
0.03591915
0.03588952
0.03585428
0.03581390
0.03576880
0.03571937
0.03566600
0.03560900
0.03554870
0.03548534
0.03541918
0.03535040
0.03527918
0.03520569
0.03513003
0.03505234
0.03497272
0.03489126
0.03480805
0.03472319
0.03463679
0.03454893
0.03445975
0.03436936
0.03427791
0.03418556
0.03409248
0.03399886
0.03390491
0.03381088
0.03371702
0.03362359
0.03353090
0.03343926
0.03334901
0.03326049
0.03317410
0.03309020
0.03300922
0.03293156
0.03285765
0.03278794
0.03272285
0.03266284
0.03260834
0.03255978
0.03251760
0.03248218
0.03245393
0.03243320
0.03242032
0.03241558
0.03241924
0.03243148
0.03245247
0.03248228
0.03252094
0.03256840
0.03262454
0.03268917
0.03276200
0.03284267
0.03293073
0.03302566
0.03312683
0.03323355
0.03334502
0.03346040
0.03357875
0.03369907
0.03382031
0.03394136
0.03406108
0.03417828
0.03429178
0.03440037
0.03450287
0.03459810
0.03468493
0.03476226
0.03482908
0.03488443
0.03492745
0.03495737
0.03497356
0.03497546
0.03496269
0.03493496
0.03489216
0.03483428
0.03476148
0.03467405
0.03457243
0.03445717
0.03432896
0.03418859
0.03403698
0.03387513
0.03370410
0.03352505
0.03333918
0.03314770
0.03295188
0.03275298
0.03255224
0.03235091
0.03215019
0.03195122
0.03175512
0.03156293
0.03137562
0.03119409
0.03101917
0.03085160
0.03069205
0.03054111
0.03039928
0.03026701
0.03014466
0.03003253
0.02993087
0.02983986
0.02975961
0.02969021
0.02963169
0.02958403
0.02954717
0.02952101
0.02950544
0.02950032
0.02950555
0.02952113
0.02954720
0.02958422
0.02963308
0.00000000
0.00000000
0.03600991
0.03601328
0.03600851
0.03599637
0.03597754
0.03595260
0.03592205
0.03588637
0.03584599
0.03580129
0.03575264
0.03570036
0.03564474
0.03558603
0.03552447
0.03546024
0.03539351
0.03532443
0.03525310
0.03517965
0.03510415
0.03502669
0.03494735
0.03486621
0.03478333
0.03469880
0.03461272
0.03452518
0.03443630
0.03434620
0.03425504
0.03416296
0.03407016
0.03397683
0.03388320
0.03378950
0.03369600
0.03360298
0.03351075
0.03341964
0.03332999
0.03324216
0.03315655
0.03307356
0.03299359
0.03291708
0.03284446
0.03277618
0.03271269
0.03265443
0.03260185
0.03255539
0.03251546
0.03248247
0.03245680
0.03243880
0.03242878
0.03242702
0.03243373
0.03244910
0.03247324
0.03250620
0.03254796
0.03259843
0.03265743
0.03272471
0.03279994
0.03288270
0.03297247
0.03306866
0.03317059
0.03327749
0.03338852
0.03350277
0.03361924
0.03373690
0.03385463
0.03397130
0.03408574
0.03419675
0.03430312
0.03440367
0.03449721
0.03458260
0.03465875
0.03472461
0.03477923
0.03482173
0.03485134
0.03486740
0.03486935
0.03485680
0.03482945
0.03478717
0.03472996
0.03465797
0.03457148
0.03447093
0.03435687
0.03422999
0.03409109
0.03394108
0.03378095
0.03361180
0.03343477
0.03325106
0.03306190
0.03286855
0.03267227
0.03247430
0.03227588
0.03207820
0.03188241
0.03168959
0.03150078
0.03131692
0.03113889
0.03096750
0.03080344
0.03064736
0.03049981
0.03036126
0.03023211
0.03011269
0.03000327
0.02990404
0.02981516
0.02973673
0.02966882
0.02961146
0.02956465
0.02952838
0.02950264
0.02948741
0.02948271
0.02948865
0.02950543
0.02953346
0.02957340
0.02962628
0.00000000
0.00000000
0.03606480
0.03606363
0.03605509
0.03603986
0.03601854
0.03599169
0.03595977
0.03592323
0.03588245
0.03583779
0.03578955
0.03573802
0.03568344
0.03562602
0.03556595
0.03550337
0.03543841
0.03537118
0.03530176
0.03523023
0.03515666
0.03508109
0.03500359
0.03492421
0.03484300
0.03476004
0.03467539
0.03458914
0.03450138
0.03441223
0.03432183
0.03423031
0.03413784
0.03404462
0.03395084
0.03385675
0.03376259
0.03366863
0.03357519
0.03348256
0.03339110
0.03330116
0.03321314
0.03312742
0.03304442
0.03296459
0.03288835
0.03281617
0.03274849
0.03268580
0.03262853
0.03257715
0.03253210
0.03249381
0.03246266
0.03243905
0.03242332
0.03241575
0.03241661
0.03242611
0.03244438
0.03247150
0.03250749
0.03255228
0.03260573
0.03266761
0.03273761
0.03281534
0.03290031
0.03299194
0.03308957
0.03319245
0.03329974
0.03341055
0.03352389
0.03363871
0.03375393
0.03386839
0.03398092
0.03409032
0.03419538
0.03429488
0.03438764
0.03447251
0.03454836
0.03461414
0.03466888
0.03471168
0.03474175
0.03475841
0.03476109
0.03474938
0.03472297
0.03468171
0.03462559
0.03455476
0.03446949
0.03437020
0.03425746
0.03413195
0.03399448
0.03384596
0.03368739
0.03351986
0.03334453
0.03316261
0.03297534
0.03278398
0.03258979
0.03239404
0.03219795
0.03200272
0.03180948
0.03161932
0.03143326
0.03125223
0.03107710
0.03090864
0.03074753
0.03059438
0.03044972
0.03031397
0.03018751
0.03007063
0.02996356
0.02986646
0.02977948
0.02970268
0.02963612
0.02957984
0.02953386
0.02949821
0.02947292
0.02945807
0.02945381
0.02946037
0.02947810
0.02950756
0.02954952
0.02960505
0.00000000
0.00000000
0.03612780
0.03612134
0.03610835
0.03608943
0.03606512
0.03603589
0.03600218
0.03596439
0.03592285
0.03587787
0.03582972
0.03577863
0.03572478
0.03566835
0.03560947
0.03554825
0.03548478
0.03541912
0.03535133
0.03528144
0.03520950
0.03513552
0.03505955
0.03498160
0.03490172
0.03481996
0.03473635
0.03465098
0.03456392
0.03447527
0.03438514
0.03429366
0.03420100
0.03410731
0.03401281
0.03391770
0.03382224
0.03372668
0.03363131
0.03353646
0.03344245
0.03334965
0.03325844
0.03316923
0.03308242
0.03299848
0.03291784
0.03284098
0.03276837
0.03270048
0.03263781
0.03258081
0.03252997
0.03248574
0.03244853
0.03241877
0.03239681
0.03238300
0.03237762
0.03238091
0.03239304
0.03241412
0.03244421
0.03248325
0.03253116
0.03258771
0.03265263
0.03272555
0.03280600
0.03289342
0.03298716
0.03308649
0.03319059
0.03329855
0.03340940
0.03352209
0.03363554
0.03374857
0.03386002
0.03396866
0.03407328
0.03417264
0.03426553
0.03435078
0.03442725
0.03449386
0.03454961
0.03459358
0.03462496
0.03464304
0.03464723
0.03463708
0.03461229
0.03457267
0.03451822
0.03444904
0.03436542
0.03426776
0.03415663
0.03403271
0.03389681
0.03374984
0.03359282
0.03342684
0.03325308
0.03307275
0.03288710
0.03269741
0.03250496
0.03231100
0.03211679
0.03192352
0.03173234
0.03154432
0.03136048
0.03118174
0.03100897
0.03084290
0.03068422
0.03053351
0.03039125
0.03025786
0.03013366
0.03001893
0.02991387
0.02981860
0.02973324
0.02965785
0.02959248
0.02953714
0.02949189
0.02945677
0.02943187
0.02941733
0.02941337
0.02942031
0.02943860
0.02946887
0.02951195
0.02956887
0.00000000
0.00000000
0.03619796
0.03618557
0.03616755
0.03614441
0.03611662
0.03608459
0.03604872
0.03600932
0.03596669
0.03592108
0.03587272
0.03582176
0.03576837
0.03571264
0.03565468
0.03559454
0.03553227
0.03546789
0.03540142
0.03533286
0.03526223
0.03518951
0.03511471
0.03503784
0.03495890
0.03487793
0.03479494
0.03470999
0.03462315
0.03453448
0.03444409
0.03435209
0.03425863
0.03416386
0.03406797
0.03397116
0.03387368
0.03377578
0.03367773
0.03357987
0.03348251
0.03338603
0.03329080
0.03319724
0.03310578
0.03301688
0.03293099
0.03284861
0.03277022
0.03269634
0.03262746
0.03256409
0.03250672
0.03245584
0.03241192
0.03237538
0.03234664
0.03232607
0.03231399
0.03231067
0.03231633
0.03233110
0.03235507
0.03238824
0.03243052
0.03248175
0.03254166
0.03260990
0.03268604
0.03276952
0.03285972
0.03295591
0.03305728
0.03316293
0.03327189
0.03338310
0.03349547
0.03360783
0.03371899
0.03382770
0.03393274
0.03403285
0.03412679
0.03421336
0.03429140
0.03435979
0.03441751
0.03446360
0.03449721
0.03451762
0.03452420
0.03451648
0.03449412
0.03445692
0.03440484
0.03433798
0.03425660
0.03416112
0.03405207
0.03393013
0.03379613
0.03365097
0.03349567
0.03333136
0.03315919
0.03298042
0.03279630
0.03260812
0.03241718
0.03222477
0.03203212
0.03184046
0.03165093
0.03146463
0.03128256
0.03110566
0.03093477
0.03077064
0.03061391
0.03046516
0.03032486
0.03019339
0.03007105
0.02995809
0.02985467
0.02976092
0.02967690
0.02960267
0.02953825
0.02948368
0.02943899
0.02940426
0.02937959
0.02936517
0.02936127
0.02936826
0.02938664
0.02941708
0.02946039
0.02951756
0.00000000
0.00000000
0.03627428
0.03625541
0.03623186
0.03620404
0.03617235
0.03613716
0.03609876
0.03605744
0.03601343
0.03596691
0.03591805
0.03586697
0.03581375
0.03575847
0.03570114
0.03564180
0.03558043
0.03551703
0.03545157
0.03538402
0.03531435
0.03524252
0.03516852
0.03509231
0.03501389
0.03493324
0.03485039
0.03476536
0.03467819
0.03458894
0.03449769
0.03440454
0.03430962
0.03421308
0.03411508
0.03401582
0.03391554
0.03381448
0.03371293
0.03361119
0.03350961
0.03340854
0.03330839
0.03320958
0.03311254
0.03301774
0.03292569
0.03283687
0.03275181
0.03267103
0.03259509
0.03252450
0.03245980
0.03240151
0.03235012
0.03230613
0.03226997
0.03224205
0.03222273
0.03221233
0.03221110
0.03221921
0.03223678
0.03226385
0.03230036
0.03234618
0.03240107
0.03246470
0.03253665
0.03261640
0.03270332
0.03279672
0.03289577
0.03299958
0.03310718
0.03321751
0.03332947
0.03344187
0.03355350
0.03366311
0.03376943
0.03387119
0.03396712
0.03405599
0.03413658
0.03420777
0.03426848
0.03431773
0.03435461
0.03437838
0.03438836
0.03438405
0.03436508
0.03433121
0.03428238
0.03421868
0.03414033
0.03404773
0.03394141
0.03382206
0.03369047
0.03354756
0.03339437
0.03323200
0.03306166
0.03288459
0.03270207