# vtk DataFile Version 3.0
particle point data
ASCII
DATASET STRUCTURED_GRID
DIMENSIONS 130 130 2
POINTS 33800 double
0.00000000 0.00000000 0.00000000
0.00787402 0.00000000 0.00000000
0.01574803 0.00000000 0.00000000
0.02362205 0.00000000 0.00000000
0.03149606 0.00000000 0.00000000
0.03937008 0.00000000 0.00000000
0.04724409 0.00000000 0.00000000
0.05511811 0.00000000 0.00000000
0.06299213 0.00000000 0.00000000
0.07086614 0.00000000 0.00000000
0.07874016 0.00000000 0.00000000
0.08661417 0.00000000 0.00000000
0.09448819 0.00000000 0.00000000
0.10236220 0.00000000 0.00000000
0.11023622 0.00000000 0.00000000
0.11811024 0.00000000 0.00000000
0.12598425 0.00000000 0.00000000
0.13385827 0.00000000 0.00000000
0.14173228 0.00000000 0.00000000
0.14960630 0.00000000 0.00000000
0.15748031 0.00000000 0.00000000
0.16535433 0.00000000 0.00000000
0.17322835 0.00000000 0.00000000
0.18110236 0.00000000 0.00000000
0.18897638 0.00000000 0.00000000
0.19685039 0.00000000 0.00000000
0.20472441 0.00000000 0.00000000
0.21259843 0.00000000 0.00000000
0.22047244 0.00000000 0.00000000
0.22834646 0.00000000 0.00000000
0.23622047 0.00000000 0.00000000
0.24409449 0.00000000 0.00000000
0.25196850 0.00000000 0.00000000
0.25984252 0.00000000 0.00000000
0.26771654 0.00000000 0.00000000
0.27559055 0.00000000 0.00000000
0.28346457 0.00000000 0.00000000
0.29133858 0.00000000 0.00000000
0.29921260 0.00000000 0.00000000
0.30708661 0.00000000 0.00000000
0.31496063 0.00000000 0.00000000
0.32283465 0.00000000 0.00000000
0.33070866 0.00000000 0.00000000
0.33858268 0.00000000 0.00000000
0.34645669 0.00000000 0.00000000
0.35433071 0.00000000 0.00000000
0.36220472 0.00000000 0.00000000
0.37007874 0.00000000 0.00000000
0.37795276 0.00000000 0.00000000
0.38582677 0.00000000 0.00000000
0.39370079 0.00000000 0.00000000
0.40157480 0.00000000 0.00000000
0.40944882 0.00000000 0.00000000
0.41732283 0.00000000 0.00000000
0.42519685 0.00000000 0.00000000
0.43307087 0.00000000 0.00000000
0.44094488 0.00000000 0.00000000
0.44881890 0.00000000 0.00000000
0.45669291 0.00000000 0.00000000
0.46456693 0.00000000 0.00000000
0.47244094 0.00000000 0.00000000
0.48031496 0.00000000 0.00000000
0.48818898 0.00000000 0.00000000
0.49606299 0.00000000 0.00000000
0.50393701 0.00000000 0.00000000
0.51181102 0.00000000 0.00000000
0.51968504 0.00000000 0.00000000
0.52755906 0.00000000 0.00000000
0.53543307 0.00000000 0.00000000
0.54330709 0.00000000 0.00000000
0.55118110 0.00000000 0.00000000
0.55905512 0.00000000 0.00000000
0.56692913 0.00000000 0.00000000
0.57480315 0.00000000 0.00000000
0.58267717 0.00000000 0.00000000
0.59055118 0.00000000 0.00000000
0.59842520 0.00000000 0.00000000
0.60629921 0.00000000 0.00000000
0.61417323 0.00000000 0.00000000
0.62204724 0.00000000 0.00000000
0.62992126 0.00000000 0.00000000
0.63779528 0.00000000 0.00000000
0.64566929 0.00000000 0.00000000
0.65354331 0.00000000 0.00000000
0.66141732 0.00000000 0.00000000
0.66929134 0.00000000 0.00000000
0.67716535 0.00000000 0.00000000
0.68503937 0.00000000 0.00000000
0.69291339 0.00000000 0.00000000
0.70078740 0.00000000 0.00000000
0.70866142 0.00000000 0.00000000
0.71653543 0.00000000 0.00000000
0.72440945 0.00000000 0.00000000
0.73228346 0.00000000 0.00000000
0.74015748 0.00000000 0.00000000
0.74803150 0.00000000 0.00000000
0.75590551 0.00000000 0.00000000
0.76377953 0.00000000 0.00000000
0.77165354 0.00000000 0.00000000
0.77952756 0.00000000 0.00000000
0.78740157 0.00000000 0.00000000
0.79527559 0.00000000 0.00000000
0.80314961 0.00000000 0.00000000
0.81102362 0.00000000 0.00000000
0.81889764 0.00000000 0.00000000
0.82677165 0.00000000 0.00000000
0.83464567 0.00000000 0.00000000
0.84251969 0.00000000 0.00000000
0.85039370 0.00000000 0.00000000
0.85826772 0.00000000 0.00000000
0.86614173 0.00000000 0.00000000
0.87401575 0.00000000 0.00000000
0.88188976 0.00000000 0.00000000
0.88976378 0.00000000 0.00000000
0.89763780 0.00000000 0.00000000
0.90551181 0.00000000 0.00000000
0.91338583 0.00000000 0.00000000
0.92125984 0.00000000 0.00000000
0.92913386 0.00000000 0.00000000
0.93700787 0.00000000 0.00000000
0.94488189 0.00000000 0.00000000
0.95275591 0.00000000 0.00000000
0.96062992 0.00000000 0.00000000
0.96850394 0.00000000 0.00000000
0.97637795 0.00000000 0.00000000
0.98425197 0.00000000 0.00000000
0.99212598 0.00000000 0.00000000
1.00000000 0.00000000 0.00000000
1.00787402 0.00000000 0.00000000
1.01574803 0.00000000 0.00000000
0.00000000 0.00787402 0.00000000
0.00787402 0.00787402 0.00000000
0.01574803 0.00787402 0.00000000
0.02362205 0.00787402 0.00000000
0.03149606 0.00787402 0.00000000
0.03937008 0.00787402 0.00000000
0.04724409 0.00787402 0.00000000
0.05511811 0.00787402 0.00000000
0.06299213 0.00787402 0.00000000
0.07086614 0.00787402 0.00000000
0.07874016 0.00787402 0.00000000
0.08661417 0.00787402 0.00000000
0.09448819 0.00787402 0.00000000
0.10236220 0.00787402 0.00000000
0.11023622 0.00787402 0.00000000
0.11811024 0.00787402 0.00000000
0.12598425 0.00787402 0.00000000
0.13385827 0.00787402 0.00000000
0.14173228 0.00787402 0.00000000
0.14960630 0.00787402 0.00000000
0.15748031 0.00787402 0.00000000
0.16535433 0.00787402 0.00000000
0.17322835 0.00787402 0.00000000
0.18110236 0.00787402 0.00000000
0.18897638 0.00787402 0.00000000
0.19685039 0.00787402 0.00000000
0.20472441 0.00787402 0.00000000
0.21259843 0.00787402 0.00000000
0.22047244 0.00787402 0.00000000
0.22834646 0.00787402 0.00000000
0.23622047 0.00787402 0.00000000
0.24409449 0.00787402 0.00000000
0.25196850 0.00787402 0.00000000
0.25984252 0.00787402 0.00000000
0.26771654 0.00787402 0.00000000
0.27559055 0.00787402 0.00000000
0.28346457 0.00787402 0.00000000
0.29133858 0.00787402 0.00000000
0.29921260 0.00787402 0.00000000
0.30708661 0.00787402 0.00000000
0.31496063 0.00787402 0.00000000
0.32283465 0.00787402 0.00000000
0.33070866 0.00787402 0.00000000
0.33858268 0.00787402 0.00000000
0.34645669 0.00787402 0.00000000
0.35433071 0.00787402 0.00000000
0.36220472 0.00787402 0.00000000
0.37007874 0.00787402 0.00000000
0.37795276 0.00787402 0.00000000
0.38582677 0.00787402 0.00000000
0.39370079 0.00787402 0.00000000
0.40157480 0.00787402 0.00000000
0.40944882 0.00787402 0.00000000
0.41732283 0.00787402 0.00000000
0.42519685 0.00787402 0.00000000
0.43307087 0.00787402 0.00000000
0.44094488 0.00787402 0.00000000
0.44881890 0.00787402 0.00000000
0.45669291 0.00787402 0.00000000
0.46456693 0.00787402 0.00000000
0.47244094 0.00787402 0.00000000
0.48031496 0.00787402 0.00000000
0.48818898 0.00787402 0.00000000
0.49606299 0.00787402 0.00000000
0.50393701 0.00787402 0.00000000
0.51181102 0.00787402 0.00000000
0.51968504 0.00787402 0.00000000
0.52755906 0.00787402 0.00000000
0.53543307 0.00787402 0.00000000
0.54330709 0.00787402 0.00000000
0.55118110 0.00787402 0.00000000
0.55905512 0.00787402 0.00000000
0.56692913 0.00787402 0.00000000
0.57480315 0.00787402 0.00000000
0.58267717 0.00787402 0.00000000
0.59055118 0.00787402 0.00000000
0.59842520 0.00787402 0.00000000
0.60629921 0.00787402 0.00000000
0.61417323 0.00787402 0.00000000
0.62204724 0.00787402 0.00000000
0.62992126 0.00787402 0.00000000
0.63779528 0.00787402 0.00000000
0.64566929 0.00787402 0.00000000
0.65354331 0.00787402 0.00000000
0.66141732 0.00787402 0.00000000
0.66929134 0.00787402 0.00000000
0.67716535 0.00787402 0.00000000
0.68503937 0.00787402 0.00000000
0.69291339 0.00787402 0.00000000
0.70078740 0.00787402 0.00000000
0.70866142 0.00787402 0.00000000
0.71653543 0.00787402 0.00000000
0.72440945 0.00787402 0.00000000
0.73228346 0.00787402 0.00000000
0.74015748 0.00787402 0.00000000
0.74803150 0.00787402 0.00000000
0.75590551 0.00787402 0.00000000
0.76377953 0.00787402 0.00000000
0.77165354 0.00787402 0.00000000
0.77952756 0.00787402 0.00000000
0.78740157 0.00787402 0.00000000
0.79527559 0.00787402 0.00000000
0.80314961 0.00787402 0.00000000
0.81102362 0.00787402 0.00000000
0.81889764 0.00787402 0.00000000
0.82677165 0.00787402 0.00000000
0.83464567 0.00787402 0.00000000
0.84251969 0.00787402 0.00000000
0.85039370 0.00787402 0.00000000
0.85826772 0.00787402 0.00000000
0.86614173 0.00787402 0.00000000
0.87401575 0.00787402 0.00000000
0.88188976 0.00787402 0.00000000
0.88976378 0.00787402 0.00000000
0.89763780 0.00787402 0.00000000
0.90551181 0.00787402 0.00000000
0.91338583 0.00787402 0.00000000
0.92125984 0.00787402 0.00000000
0.92913386 0.00787402 0.00000000
0.93700787 0.00787402 0.00000000
0.94488189 0.00787402 0.00000000
0.95275591 0.00787402 0.00000000
0.96062992 0.00787402 0.00000000
0.96850394 0.00787402 0.00000000
0.97637795 0.00787402 0.00000000
0.98425197 0.00787402 0.00000000
0.99212598 0.00787402 0.00000000
1.00000000 0.00787402 0.00000000
1.00787402 0.00787402 0.00000000
1.01574803 0.00787402 0.00000000
0.00000000 0.01574803 0.00000000
0.00787402 0.01574803 0.00000000
0.01574803 0.01574803 0.00000000
0.02362205 0.01574803 0.00000000
0.03149606 0.01574803 0.00000000
0.03937008 0.01574803 0.00000000
0.04724409 0.01574803 0.00000000
0.05511811 0.01574803 0.00000000
0.06299213 0.01574803 0.00000000
0.07086614 0.01574803 0.00000000
0.07874016 0.01574803 0.00000000
0.08661417 0.01574803 0.00000000
0.09448819 0.01574803 0.00000000
0.10236220 0.01574803 0.00000000
0.11023622 0.01574803 0.00000000
0.11811024 0.01574803 0.00000000
0.12598425 0.01574803 0.00000000
0.13385827 0.01574803 0.00000000
0.14173228 0.01574803 0.00000000
0.14960630 0.01574803 0.00000000
0.15748031 0.01574803 0.00000000
0.16535433 0.01574803 0.00000000
0.17322835 0.01574803 0.00000000
0.18110236 0.01574803 0.00000000
0.18897638 0.01574803 0.00000000
0.19685039 0.01574803 0.00000000
0.20472441 0.01574803 0.00000000
0.21259843 0.01574803 0.00000000
0.22047244 0.01574803 0.00000000
0.22834646 0.01574803 0.00000000
0.23622047 0.01574803 0.00000000
0.24409449 0.01574803 0.00000000
0.25196850 0.01574803 0.00000000
0.25984252 0.01574803 0.00000000
0.26771654 0.01574803 0.00000000
0.27559055 0.01574803 0.00000000
0.28346457 0.01574803 0.00000000
0.29133858 0.01574803 0.00000000
0.29921260 0.01574803 0.00000000
[...]
CELL_DATA 16641
 SCALARS pressure double 1
 LOOKUP_TABLE default
0.00000000
0.00000000
0.00000000
0.00000000
0.00000000
0.00000000
0.00000000
0.00000000
0.00000000
0.00000000
0.00000000
0.00000000
0.00000000
0.00000000
0.00000000
0.00000000
0.00000000
0.00000000
0.00000000
0.00000000
0.00000000
0.00000000
0.00000000
0.00000000
0.00000000
0.00000000
0.00000000
0.00000000
0.00000000
0.00000000
0.00000000
0.00000000
0.00000000
0.00000000
0.00000000
0.00000000
0.00000000
0.00000000
0.00000000
0.00000000
0.00000000
0.00000000
0.00000000
0.00000000
0.00000000
0.00000000
0.00000000
0.00000000
0.00000000
0.00000000
0.00000000
0.00000000
0.00000000
0.00000000
0.00000000
0.00000000
0.00000000
0.00000000
0.00000000
0.00000000
0.00000000
0.00000000
0.00000000
0.00000000
0.00000000
0.00000000
0.00000000
0.00000000
0.00000000
0.00000000
0.00000000
0.00000000
0.00000000
0.00000000
0.00000000
0.00000000
0.00000000
0.00000000
0.00000000
0.00000000
0.00000000
0.00000000
0.00000000
0.00000000
0.00000000
0.00000000
0.00000000
0.00000000
0.00000000
0.00000000
0.00000000
0.00000000
0.00000000
0.00000000
0.00000000
0.00000000
0.00000000
0.00000000
0.00000000
0.00000000
0.00000000
0.00000000
0.00000000
0.00000000
0.00000000
0.00000000
0.00000000
0.00000000
0.00000000
0.00000000
0.00000000
0.00000000
0.00000000
0.00000000
0.00000000
0.00000000
0.00000000
0.00000000
0.00000000
0.00000000
0.00000000
0.00000000
0.00000000
0.00000000
0.00000000
0.00000000
0.00000000
0.00000000
0.00000000
0.00000000
0.04332933
0.04334598
0.04335832
0.04336778
0.04336618
0.04335425
0.04333026
0.04329503
0.04324892
0.04319292
0.04312788
0.04305476
0.04297441
0.04288757
0.04279486
0.04269674
0.04259353
0.04248541
0.04237241
0.04225447
0.04213144
0.04200310
0.04186918
0.04172942
0.04158354
0.04143130
0.04127251
0.04110703
0.04093482
0.04075589
0.04057038
0.04037852
0.04018066
0.03997726
0.03976892
0.03955637
0.03934047
0.03912223
0.03890280
0.03868349
0.03846575
0.03825118
0.03804152
0.03783864
0.03764452
0.03746125
0.03729102
0.03713604
0.03699859
0.03688092
0.03678525
0.03671374
0.03666839
0.03665109
0.03666349
0.03670699
0.03678270
0.03689138
0.03703341
0.03720873
0.03741686
0.03765678
0.03792699
0.03822547
0.03854966
0.03889648
0.03926235
0.03964319
0.04003449
0.04043138
0.04082862
0.04122075
0.04160214
0.04196711
0.04231000
0.04262532
0.04290784
0.04315271
0.04335557
0.04351266
0.04362091
0.04367803
0.04368255
0.04363389
0.04353239
0.04337926
0.04317661
0.04292736
0.04263519
0.04230442
0.04193992
0.04154699
0.04113120
0.04069825
0.04025385
0.03980362
0.03935288
0.03890664
0.03846944
0.03804533
0.03763779
0.03724974
0.03688347
0.03654072
0.03622266
0.03592995
0.03566279
0.03542097
0.03520394
0.03501088
0.03484076
0.03469242
0.03456463
0.03445614
0.03436574
0.03429233
0.03423492
0.03419263
0.03416479
0.03415066
0.03414973
0.03416071
0.03418292
0.03421248
0.03424783
0.03427819
0.03429955
0.00000000
0.00000000
0.04331270
0.04332937
0.04333470
0.04333858
0.04333244
0.04331828
0.04329395
0.04326017
0.04321688
0.04316477
0.04310440
0.04303647
0.04296162
0.04288045
0.04279345
0.04270101
0.04260341
0.04250080
0.04239324
0.04228069
0.04216305
0.04204014
0.04191176
0.04177769
0.04163770
0.04149161
0.04133924
0.04118049
0.04101531
0.04084373
0.04066587
0.04048193
0.04029222
0.04009718
0.03989732
0.03969333
0.03948598
0.03927621
0.03906508
0.03885381
0.03864373
0.03843635
0.03823328
0.03803629
0.03784724
0.03766811
0.03750096
0.03734790
0.03721110
0.03709271
0.03699485
0.03691961
0.03686892
0.03684462
0.03684830
0.03688136
0.03694489
0.03703967
0.03716611
0.03732422
0.03751357
0.03773326
0.03798190
0.03825760
0.03855797
0.03888011
0.03922063
0.03957568
0.03994099
0.04031191
0.04068348
0.04105050
0.04140762
0.04174942
0.04207054
0.04236573
0.04263002
0.04285881
0.04304794
0.04319387
0.04329367
0.04334519
0.04334704
0.04329871
0.04320052
0.04305366
0.04286013
0.04262271
0.04234491
0.04203083
0.04168507
0.04131262
0.04091874
0.04050878
0.04008811
0.03966198
0.03923537
0.03881294
0.03839892
0.03799709
0.03761068
0.03724237
0.03689431
0.03656811
0.03626485
0.03598517
0.03572926
0.03549695
0.03528775
0.03510095
0.03493562
0.03479071
0.03466511
0.03455767
0.03446726
0.03439281
0.03433333
0.03428788
0.03425567
0.03423573
0.03422742
0.03422915
0.03424042
0.03425725
0.03428044
0.03429926
0.03432077
0.00000000
0.00000000
0.04330029
0.04332405
0.04332937
0.04333384
0.04332719
0.04331288
0.04328856
0.04325522
0.04321274
0.04316183
0.04310299
0.04303690
0.04296413
0.04288525
0.04280071
0.04271087
0.04261598
0.04251618
0.04241152
0.04230196
0.04218736
0.04206758
0.04194239
0.04181159
0.04167494
0.04153225
0.04138335
0.04122813
0.04106652
0.04089853
0.04072427
0.04054390
0.04035772
0.04016610
0.03996954
0.03976867
0.03956422
0.03935708
0.03914826
0.03893893
0.03873037
0.03852404
0.03832151
0.03812449
0.03793484
0.03775448
0.03758545
0.03742985
0.03728984
0.03716758
0.03706519
0.03698477
0.03692831
0.03689764
0.03689443
0.03692012
0.03697586
0.03706249
0.03718049
0.03732994
0.03751048
0.03772129
0.03796105
0.03822796
0.03851968
0.03883338
0.03916575
0.03951297
0.03987084
0.04023475
0.04059978
0.04096076
0.04131236
0.04164918
0.04196585
0.04225715
0.04251810
0.04274408
0.04293096
0.04307514
0.04317372
0.04322451
0.04322614
0.04317808
0.04308064
0.04293502
0.04274323
0.04250807
0.04223302
0.04192220
0.04158023
0.04121209
0.04082302
0.04041838
0.04000351
0.03958359
0.03916359
0.03874809
0.03834127
0.03794680
0.03756784
0.03720699
0.03686629
0.03654727
0.03625093
0.03597782
0.03572807
0.03550145
0.03529744
0.03511526
0.03495398
0.03481253
0.03468977
0.03458456
0.03449577
0.03442231
0.03436320
0.03431749
0.03428441
0.03426301
0.03425278
0.03425215
0.03426126
0.03427586
0.03429939
0.03431803
0.03435145
0.00000000
0.00000000
0.04329061
0.04332012
0.04332480
0.04332919
0.04332149
0.04330664
0.04328215
0.04324928
0.04320784
0.04315853
0.04310180
0.04303824
0.04296837
0.04289270
0.04281161
0.04272544
0.04263438
0.04253855
0.04243799
0.04233262
0.04222233
0.04210694
0.04198624
0.04186001
0.04172802
0.04159007
0.04144597
0.04129559
0.04113886
0.04097576
0.04080633
0.04063073
0.04044919
0.04026203
0.04006969
0.03987273
0.03967183
0.03946779
0.03926156
0.03905424
0.03884704
0.03864135
0.03843870
0.03824074
0.03804928
0.03786621
0.03769355
0.03753340
0.03738790
0.03725923
0.03714954
0.03706095
0.03699551
0.03695511
0.03694148
0.03695614
0.03700032
0.03707495
0.03718061
0.03731747
0.03748526
0.03768327
0.03791029
0.03816459
0.03844395
0.03874562
0.03906635
0.03940245
0.03974975
0.04010373
0.04045951
0.04081197
0.04115583
0.04148572
0.04179629
0.04208232
0.04233886
0.04256128
0.04274543
0.04288771
0.04298520
0.04303569
0.04303781
0.04299098
0.04289553
0.04275262
0.04256425
0.04233322
0.04206300
0.04175770
0.04142193
0.04106066
0.04067910
0.04028258
0.03987640
0.03946572
0.03905540
0.03864997
0.03825351
0.03786961
0.03750130
0.03715107
0.03682085
0.03651205
0.03622556
0.03596184
0.03572091
0.03550246
0.03530592
0.03513046
0.03497510
0.03483874
0.03472023
0.03461841
0.03453213
0.03446031
0.03440196
0.03435610
0.03432201
0.03429873
0.03428593
0.03428208
0.03428808
0.03429941
0.03432268
0.03434054
0.03438659
0.00000000
0.00000000
0.04329182
0.04332611
0.04333111
0.04333620
0.04332817
0.04331310
0.04328839
0.04325558
0.04321452
0.04316597
0.04311037
0.04304833
0.04298034
0.04290689
0.04282833
0.04274495
0.04265695
0.04256439
0.04246727
0.04236550
0.04225893
0.04214736
0.04203054
0.04190823
0.04178016
0.04164611
0.04150587
0.04135925
0.04120614
0.04104649
0.04088028
0.04070762
0.04052868
0.04034372
0.04015312
0.03995737
0.03975708
0.03955300
0.03934600
0.03913714
0.03892760
0.03871871
0.03851199
0.03830908
0.03811177
0.03792200
0.03774180
0.03757331
0.03741874
0.03728032
0.03716031
0.03706091
0.03698427
0.03693238
0.03690709
0.03691002
0.03694252
0.03700564
0.03710004
0.03722600
0.03738337
0.03757149
0.03778924
0.03803497
0.03830649
0.03860112
0.03891565
0.03924639
0.03958919
0.03993953
0.04029252
0.04064301
0.04098568
0.04131511
0.04162589
0.04191275
0.04217065
0.04239487
0.04258118
0.04272591
0.04282605
0.04287932
0.04288427
0.04284027
0.04274762
0.04260745
0.04242175
0.04219333
0.04192570
0.04162302
0.04128993
0.04093149
0.04055299
0.04015982
0.03975735
0.03935080
0.03894509
0.03854477
0.03815393
0.03777614
0.03741441
0.03707117
0.03674828
0.03644706
0.03616830
0.03591234
0.03567910
0.03546817
0.03527885
0.03511021
0.03496120
0.03483062
0.03471726
0.03461990
0.03453736
0.03446850
0.03441233
0.03436790
0.03433451
0.03431128
0.03429810
0.03429351
0.03429919
0.03431024
0.03433610
0.03435558
0.03441461
0.00000000
0.00000000
0.04330340
0.04334018
0.04334503
0.04335011
0.04334140
0.04332575
0.04330051
0.04326749
0.04322655
0.04317853
0.04312387
0.04306320
0.04299699
0.04292569
0.04284965
0.04276912
0.04268424
0.04259505
0.04250151
0.04240348
0.04230077
0.04219312
0.04208027
0.04196191
0.04183775
0.04170750
0.04157090
0.04142773
0.04127780
0.04112099
0.04095726
0.04078660
0.04060913
0.04042503
0.04023461
0.04003827
0.03983657
0.03963018
0.03941993
0.03920683
0.03899201
0.03877682
0.03856275
0.03835146
0.03814478
0.03794469
0.03775330
0.03757282
0.03740556
0.03725388
0.03712013
0.03700665
0.03691570
0.03684944
0.03680982
0.03679860
0.03681726
0.03686696
0.03694848
0.03706220
0.03720806
0.03738550
0.03759345
0.03783033
0.03809401
0.03838185
0.03869065
0.03901676
0.03935603
0.03970391
0.04005552
0.04040566
0.04074896
0.04107995
0.04139315
0.04168319
0.04194493
0.04217356
0.04236475
0.04251469
0.04262027
0.04267910
0.04268961
0.04265111
0.04256379
0.04242874
0.04224792
0.04202412
0.04176085
0.04146230
0.04113318
0.04077861
0.04040396
0.04001472
0.03961634
0.03921414
0.03881313
0.03841791
0.03803263
0.03766088
0.03730567
0.03696942
0.03665393
0.03636046
0.03608972
0.03584192
0.03561690
0.03541412
0.03523275
0.03507177
0.03492999
0.03480613
0.03469888
0.03460695
0.03452908
0.03446411
0.03441102
0.03436884
0.03433694
0.03431448
0.03430157
0.03429681
0.03430259
0.03431369
0.03434199
0.03436297
0.03443267
0.00000000
0.00000000
0.04332741
0.04336472
0.04336909
0.04337358
0.04336395
0.04334739
0.04332133
0.04328771
0.04324647
0.04319851
0.04314432
0.04308453
0.04301962
0.04295003
0.04287607
0.04279798
0.04271583
0.04262964
0.04253930
0.04244462
0.04234535
0.04224119
0.04213178
0.04201677
0.04189580
0.04176851
0.04163457
0.04149367
0.04134557
0.04119006
0.04102699
0.04085630
0.04067800
0.04049219
0.04029911
0.04009908
0.03989259
0.03968028
0.03946292
0.03924150
0.03901716
0.03879126
0.03856534
0.03834111
0.03812049
0.03790556
0.03769854
0.03750179
0.03731775
0.03714892
0.03699783
0.03686699
0.03675880
0.03667556
0.03661940
0.03659222
0.03659560
0.03663085
0.03669884
0.03680006
0.03693452
0.03710173
0.03730070
0.03752989
0.03778720
0.03807002
0.03837518
0.03869901
0.03903736
0.03938567
0.03973900
0.04009213
0.04043960
0.04077587
0.04109535
0.04139257
0.04166226
0.04189947
0.04209971
0.04225903
0.04237415
0.04244252
0.04246243
0.04243303
0.04235441
0.04222754
0.04205431
0.04183746
0.04158050
0.04128763
0.04096360
0.04061360
0.04024311
0.03985773
0.03946306
0.03906452
0.03866727
0.03827604
0.03789507
0.03752806
0.03717806
0.03684752
0.03653825
0.03625148
0.03598787
0.03574756
0.03553027
0.03533536
0.03516188
0.03500868
0.03487444
0.03475777
0.03465725
0.03457148
0.03449913
0.03443896
0.03438991
0.03435102
0.03432168
0.03430109
0.03428955
0.03428572
0.03429254
0.03430451
0.03433540
0.03435802
0.03443591
0.00000000
0.00000000
0.04336353
0.04339941
0.04340269
0.04340572
0.04339469
0.04337673
0.04334945
0.04331485
0.04327298
0.04322476
0.04317073
0.04311153
0.04304764
0.04297949
0.04290736
0.04283143
0.04275176
0.04266829
0.04258084
0.04248917
0.04239294
0.04229177
0.04218524
0.04207290
0.04195430
0.04182900
0.04169658
0.04155662
0.04140879
0.04125277
0.04108832
0.04091527
0.04073354
0.04054314
0.04034422
0.04013704
0.03992203
0.03969979
0.03947110
0.03923693
0.03899849
0.03875717
0.03851460
0.03827262
0.03803326
0.03779874
0.03757147
0.03735395
0.03714884
0.03695880
0.03678656
0.03663478
0.03650608
0.03640290
0.03632753
0.03628198
0.03626801
0.03628701
0.03633996
0.03642745
0.03654955
0.03670585
0.03689542
0.03711675
0.03736781
0.03764599
0.03794816
0.03827065
0.03860932
0.03895959
0.03931650
0.03967476
0.04002888
0.04037321
0.04070209
0.04100990
0.04129123
0.04154098
0.04175448
0.04192758
0.04205679
0.04213937
0.04217340
0.04215784
0.04209259
0.04197846
0.04181721
0.04161147
0.04136470
0.04108106
0.04076532
0.04042272
0.04005881
0.03967932
0.03928998
0.03889637
0.03850378
0.03811712
0.03774078
0.03737858
0.03703368
0.03670862
0.03640526
0.03612484
0.03586800
0.03563485
0.03542505
0.03523786
0.03507222
0.03492686
0.03480035
0.03469115
0.03459775
0.03451861
0.03445231
0.03439755
0.03435321
0.03431827
0.03429216
0.03427409
0.03426448
0.03426206
0.03427017
0.03428312
0.03431598
0.03433982
0.03442297
0.00000000
0.00000000
0.04341203
0.04344475
0.04344638
0.04344714
0.04343422
0.04341437
0.04338549
0.04334954
0.04330667
0.04325785
0.04320363
0.04314467
0.04308143
0.04301434
0.04294364
0.04286947
0.04279182
0.04271057
0.04262546
0.04253617
0.04244227
0.04234328
0.04223867
0.04212790
0.04201041
0.04188563
0.04175302
0.04161208
0.04146231
0.04130330
0.04113469
0.04095619
0.04076762
0.04056890
0.04036010
0.04014144
0.03991332
0.03967632
0.03943125
0.03917914
0.03892127
0.03865915
0.03839454
0.03812944
0.03786606
0.03760683
0.03735434
0.03711133
0.03688064
0.03666517
0.03646783
0.03629150
0.03613894
0.03601280
0.03591548
0.03584916
0.03581570
0.03581660
0.03585295
0.03592540
0.03603412
0.03617876
0.03635843
0.03657171
0.03681658
0.03709050
0.03739036
0.03771251
0.03805284
0.03840676
0.03876929
0.03913512
0.03949869
0.03985429
0.04019613
0.04051849
0.04081579
0.04108274
0.04131446
0.04150658
0.04165536
0.04175779
0.04181169
0.04181577
0.04176965
0.04167394
0.04153018
0.04134084
0.04110923
0.04083945
0.04053623
0.04020481
0.03985082
0.03948007
0.03909841
0.03871161
0.03832512
0.03794405
0.03757297
0.03721588
0.03687610
0.03655630
0.03625846
0.03598387
0.03573324
0.03550667
0.03530379
0.03512379
0.03496556
0.03482772
0.03470872
0.03460692
0.03452065
0.03444829
0.03438832
0.03433931
0.03430010
0.03426960
0.03424723
0.03423220
0.03422501
0.03422440
0.03423398
0.03424797
0.03428217
0.03430678
0.03439243
0.00000000
0.00000000
0.04347257
0.04350054
0.04349994
0.04349759
0.04348227
0.04346004
0.04342917
0.04339152
0.04334735
0.04329761
0.04324290
0.04318385
0.04312094
0.04305453
0.04298486
0.04291198
0.04283583
0.04275619
0.04267273
0.04258502
0.04249252
0.04239463
0.04229071
0.04218008
0.04206204
0.04193591
0.04180098
0.04165662
0.04150220
0.04133715
0.04116101
0.04097335
0.04077390
0.04056251
0.04033917
0.04010409
0.03985766
0.03960050
0.03933348
0.03905775
0.03877471
0.03848603
0.03819367
0.03789983
0.03760695
0.03731768
0.03703487
0.03676149
0.03650061
0.03625535
0.03602883
0.03582412
0.03564416
0.03549175
0.03536946
0.03527957
0.03522407
0.03520454
0.03522219
0.03527775
0.03537145
0.03550304
0.03567168
0.03587602
0.03611413
0.03638350
0.03668109
0.03700332
0.03734608
0.03770482
0.03807459
0.03845004
0.03882560
0.03919548
0.03955380
0.03989469
0.04021244
0.04050154
0.04075688
0.04097381
0.04114831
0.04127705
0.04135752
0.04138809
0.04136806
0.04129772
0.04117833
0.04101210
0.04080213
0.04055236
0.04026741
0.03995249
0.03961323
0.03925549
0.03888527
0.03850845
0.03813071
0.03775734
0.03739312
0.03704229
0.03670837
0.03639421
0.03610197
0.03583307
0.03558829
0.03536782
0.03517130
0.03499793
0.03484654
0.03471568
0.03460373
0.03450894
0.03442954
0.03436379
0.03431005
0.03426682
0.03423282
0.03420693
0.03418849
0.03417670
0.03417208
0.03417339
0.03418434
0.03419919
0.03423393
0.03425877
0.03434434
0.00000000
0.00000000
0.04354492
0.04356666
0.04356330
0.04355708
0.04353888
0.04351381
0.04348061
0.04344093
0.04339516
0.04334421
0.04328869
0.04322921
0.04316624
0.04310008
0.04303091
0.04295874
0.04288339
0.04280458
0.04272184
0.04263464
0.04254230
0.04244409
0.04233922
0.04222685
0.04210615
0.04197624
0.04183628
0.04168546
0.04152301
0.04134821
0.04116046
0.04095922
0.04074414
0.04051499
0.04027175
0.04001462
0.03974404
0.03946073
0.03916567
0.03886016
0.03854578
0.03822445
0.03789833
0.03756989
0.03724183
0.03691708
0.03659871
0.03628997
0.03599417
0.03571465
0.03545473
0.03521766
0.03500657
0.03482440
0.03467385
0.03455733
0.03447693
0.03443434
0.03443086
0.03446729
0.03454398
0.03466074
0.03481685
0.03501102
0.03524141
0.03550562
0.03580068
0.03612309
0.03646882
0.03683337
0.03721183
0.03759887
0.03798890
0.03837610
0.03875449
0.03911811
0.03946105
0.03977760
0.04006240
0.04031049
0.04051752
0.04067979
0.04079439
0.04085927
0.04087334
0.04083645
0.04074949
0.04061432
0.04043374
0.04021142
0.03995181
0.03965998
0.03934151
0.03900229
0.03864838
0.03828581
0.03792043
0.03755775
0.03720280
0.03686005
0.03653330
0.03622564
0.03593943
0.03567629
0.03543718
0.03522240
0.03503166
0.03486423
0.03471893
0.03459431
0.03448868
0.03440024
0.03432711
0.03426747
0.03421957
0.03418181
0.03415283
0.03413140
0.03411683
0.03410825
0.03410615
0.03410931
0.03412141
0.03413685
0.03417134
0.03419585
0.03427910
0.00000000
0.00000000
0.04362861
0.04364275
0.04363612
0.04362530
0.04360381
0.04357548
0.04353964
0.04349765
0.04345002
0.04339758
0.04334094
0.04328069
0.04321722
0.04315081
0.04308155
0.04300936
0.04293397
0.04285498
0.04277181
0.04268376
0.04259002
0.04248970
0.04238184
0.04226543
0.04213943
0.04200280
0.04185453
0.04169362
0.04151913
0.04133021
0.04112610
0.04090621
0.04067008
0.04041747
0.04014837
0.03986302
0.03956198
0.03924609
0.03891651
0.03857475
0.03822264
0.03786235
0.03749633
0.03712732
0.03675833
0.03639254
0.03603333
0.03568417
0.03534862
0.03503024
0.03473256
0.03445899
0.03421282
0.03399713
0.03381475
0.03366820
0.03355969
0.03349101
0.03346354
0.03347820
0.03353544
0.03363516
0.03377676
0.03395906
0.03418034
0.03443832
0.03473014
0.03505242
0.03540124
0.03577220
0.03616044
0.03656072
0.03696744
0.03737477
0.03777670
0.03816713
0.03854001
0.03888942
0.03920972
0.03949564
0.03974244
0.03994601
0.04010297
0.04021080
0.04026787
0.04027355
0.04022824
0.04013333
0.03999119
0.03980514
0.03957932
0.03931860
0.03902841
0.03871459
0.03838323
0.03804044
0.03769224
0.03734436
0.03700209
0.03667016
0.03635269
0.03605303
0.03577385
0.03551702
0.03528371
0.03507443
0.03488904
0.03472690
0.03458693
0.03446770
0.03436751
0.03428452
0.03421683
0.03416252
0.03411977
0.03408687
0.03406238
0.03404500
0.03403392
0.03402825
0.03402838
0.03403312
0.03404597
0.03406162
0.03409508
0.03411875
0.03419779
0.00000000
0.00000000
0.04372312
0.04372834
0.04371798
0.04370192
0.04367676
0.04364482
0.04360608
0.04356154
0.04351180
0.04345759
0.04339952
0.04333809
0.04327364
0.04320638
0.04313629
0.04306321
0.04298674
0.04290635
0.04282130
0.04273074
0.04263368
0.04252906
0.04241571
0.04229242
0.04215797
0.04201112
0.04185064
0.04167536
0.04148418
0.04127610
0.04105027
0.04080599
0.04054280
0.04026046
0.03995902
0.03963884
0.03930061
0.03894537
0.03857453
0.03818984
0.03779344
0.03738779
0.03697564
0.03656006
0.03614434
0.03573196
0.03532657
0.03493189
0.03455171
0.03418980
0.03384987
0.03353551
0.03325014
0.03299699
0.03277900
0.03259881
0.03245873
0.03236066
0.03230609
0.03229605
0.03233109
0.03241126
0.03253606
0.03270448
0.03291492
0.03316525
0.03345278
0.03377426
0.03412593
0.03450351
0.03490228
0.03531707
0.03574236
0.03617233
0.03660095
0.03702205
0.03742943
0.03781699
0.03817880
0.03850928
0.03880328
0.03905621
0.03926419
0.03942413
0.03953382
0.03959202
0.03959850
0.03955408
0.03946060
0.03932087
0.03913862
0.03891837
0.03866531
0.03838513
0.03808387
0.03776769
0.03744272
0.03711490
0.03678976
0.03647236
0.03616710
0.03587772
0.03560719
0.03535773
0.03513079
0.03492713
0.03474686
0.03458952
0.03445414
0.03433941
0.03424368
0.03416513
0.03410185
0.03405186
0.03401331
0.03398441
0.03396363
0.03394959
0.03394140
0.03393810
0.03393998
0.03394584
0.03395898
0.03397438
0.03400609
0.03402842
0.03410177
0.00000000
0.00000000
0.04382777
0.04382278
0.04380827
0.04378638
0.04375725