# vtk DataFile Version 3.0
particle point data
ASCII
DATASET STRUCTURED_GRID
DIMENSIONS 130 130 2
POINTS 33800 double
0.00000000 0.00000000 0.00000000
0.00787402 0.00000000 0.00000000
0.01574803 0.00000000 0.00000000
0.02362205 0.00000000 0.00000000
0.03149606 0.00000000 0.00000000
0.03937008 0.00000000 0.00000000
0.04724409 0.00000000 0.00000000
0.05511811 0.00000000 0.00000000
0.06299213 0.00000000 0.00000000
0.07086614 0.00000000 0.00000000
0.07874016 0.00000000 0.00000000
0.08661417 0.00000000 0.00000000
0.09448819 0.00000000 0.00000000
0.10236220 0.00000000 0.00000000
0.11023622 0.00000000 0.00000000
0.11811024 0.00000000 0.00000000
0.12598425 0.00000000 0.00000000
0.13385827 0.00000000 0.00000000
0.14173228 0.00000000 0.00000000
0.14960630 0.00000000 0.00000000
0.15748031 0.00000000 0.00000000
0.16535433 0.00000000 0.00000000
0.17322835 0.00000000 0.00000000
0.18110236 0.00000000 0.00000000
0.18897638 0.00000000 0.00000000
0.19685039 0.00000000 0.00000000
0.20472441 0.00000000 0.00000000
0.21259843 0.00000000 0.00000000
0.22047244 0.00000000 0.00000000
0.22834646 0.00000000 0.00000000
0.23622047 0.00000000 0.00000000
0.24409449 0.00000000 0.00000000
0.25196850 0.00000000 0.00000000
0.25984252 0.00000000 0.00000000
0.26771654 0.00000000 0.00000000
0.27559055 0.00000000 0.00000000
0.28346457 0.00000000 0.00000000
0.29133858 0.00000000 0.00000000
0.29921260 0.00000000 0.00000000
0.30708661 0.00000000 0.00000000
0.31496063 0.00000000 0.00000000
0.32283465 0.00000000 0.00000000
0.33070866 0.00000000 0.00000000
0.33858268 0.00000000 0.00000000
0.34645669 0.00000000 0.00000000
0.35433071 0.00000000 0.00000000
0.36220472 0.00000000 0.00000000
0.37007874 0.00000000 0.00000000
0.37795276 0.00000000 0.00000000
0.38582677 0.00000000 0.00000000
0.39370079 0.00000000 0.00000000
0.40157480 0.00000000 0.00000000
0.40944882 0.00000000 0.00000000
0.41732283 0.00000000 0.00000000
0.42519685 0.00000000 0.00000000
0.43307087 0.00000000 0.00000000
0.44094488 0.00000000 0.00000000
0.44881890 0.00000000 0.00000000
0.45669291 0.00000000 0.00000000
0.46456693 0.00000000 0.00000000
0.47244094 0.00000000 0.00000000
0.48031496 0.00000000 0.00000000
0.48818898 0.00000000 0.00000000
0.49606299 0.00000000 0.00000000
0.50393701 0.00000000 0.00000000
0.51181102 0.00000000 0.00000000
0.51968504 0.00000000 0.00000000
0.52755906 0.00000000 0.00000000
0.53543307 0.00000000 0.00000000
0.54330709 0.00000000 0.00000000
0.55118110 0.00000000 0.00000000
0.55905512 0.00000000 0.00000000
0.56692913 0.00000000 0.00000000
0.57480315 0.00000000 0.00000000
0.58267717 0.00000000 0.00000000
0.59055118 0.00000000 0.00000000
0.59842520 0.00000000 0.00000000
0.60629921 0.00000000 0.00000000
0.61417323 0.00000000 0.00000000
0.62204724 0.00000000 0.00000000
0.62992126 0.00000000 0.00000000
0.63779528 0.00000000 0.00000000
0.64566929 0.00000000 0.00000000
0.65354331 0.00000000 0.00000000
0.66141732 0.00000000 0.00000000
0.66929134 0.00000000 0.00000000
0.67716535 0.00000000 0.00000000
0.68503937 0.00000000 0.00000000
0.69291339 0.00000000 0.00000000
0.70078740 0.00000000 0.00000000
0.70866142 0.00000000 0.00000000
0.71653543 0.00000000 0.00000000
0.72440945 0.00000000 0.00000000
0.73228346 0.00000000 0.00000000
0.74015748 0.00000000 0.00000000
0.74803150 0.00000000 0.00000000
0.75590551 0.00000000 0.00000000
0.76377953 0.00000000 0.00000000
0.77165354 0.00000000 0.00000000
0.77952756 0.00000000 0.00000000
0.78740157 0.00000000 0.00000000
0.79527559 0.00000000 0.00000000
0.80314961 0.00000000 0.00000000
0.81102362 0.00000000 0.00000000
0.81889764 0.00000000 0.00000000
0.82677165 0.00000000 0.00000000
0.83464567 0.00000000 0.00000000
0.84251969 0.00000000 0.00000000
0.85039370 0.00000000 0.00000000
0.85826772 0.00000000 0.00000000
0.86614173 0.00000000 0.00000000
0.87401575 0.00000000 0.00000000
0.88188976 0.00000000 0.00000000
0.88976378 0.00000000 0.00000000
0.89763780 0.00000000 0.00000000
0.90551181 0.00000000 0.00000000
0.91338583 0.00000000 0.00000000
0.92125984 0.00000000 0.00000000
0.92913386 0.00000000 0.00000000
0.93700787 0.00000000 0.00000000
0.94488189 0.00000000 0.00000000
0.95275591 0.00000000 0.00000000
0.96062992 0.00000000 0.00000000
0.96850394 0.00000000 0.00000000
0.97637795 0.00000000 0.00000000
0.98425197 0.00000000 0.00000000
0.99212598 0.00000000 0.00000000
1.00000000 0.00000000 0.00000000
1.00787402 0.00000000 0.00000000
1.01574803 0.00000000 0.00000000
0.00000000 0.00787402 0.00000000
0.00787402 0.00787402 0.00000000
0.01574803 0.00787402 0.00000000
0.02362205 0.00787402 0.00000000
0.03149606 0.00787402 0.00000000
0.03937008 0.00787402 0.00000000
0.04724409 0.00787402 0.00000000
0.05511811 0.00787402 0.00000000
0.06299213 0.00787402 0.00000000
0.07086614 0.00787402 0.00000000
0.07874016 0.00787402 0.00000000
0.08661417 0.00787402 0.00000000
0.09448819 0.00787402 0.00000000
0.10236220 0.00787402 0.00000000
0.11023622 0.00787402 0.00000000
0.11811024 0.00787402 0.00000000
0.12598425 0.00787402 0.00000000
0.13385827 0.00787402 0.00000000
0.14173228 0.00787402 0.00000000
0.14960630 0.00787402 0.00000000
0.15748031 0.00787402 0.00000000
0.16535433 0.00787402 0.00000000
0.17322835 0.00787402 0.00000000
0.18110236 0.00787402 0.00000000
0.18897638 0.00787402 0.00000000
0.19685039 0.00787402 0.00000000
0.20472441 0.00787402 0.00000000
0.21259843 0.00787402 0.00000000
0.22047244 0.00787402 0.00000000
0.22834646 0.00787402 0.00000000
0.23622047 0.00787402 0.00000000
0.24409449 0.00787402 0.00000000
0.25196850 0.00787402 0.00000000
0.25984252 0.00787402 0.00000000
0.26771654 0.00787402 0.00000000
0.27559055 0.00787402 0.00000000
0.28346457 0.00787402 0.00000000
0.29133858 0.00787402 0.00000000
0.29921260 0.00787402 0.00000000
0.30708661 0.00787402 0.00000000
0.31496063 0.00787402 0.00000000
0.32283465 0.00787402 0.00000000
0.33070866 0.00787402 0.00000000
0.33858268 0.00787402 0.00000000
0.34645669 0.00787402 0.00000000
0.35433071 0.00787402 0.00000000
0.36220472 0.00787402 0.00000000
0.37007874 0.00787402 0.00000000
0.37795276 0.00787402 0.00000000
0.38582677 0.00787402 0.00000000
0.39370079 0.00787402 0.00000000
0.40157480 0.00787402 0.00000000
0.40944882 0.00787402 0.00000000
0.41732283 0.00787402 0.00000000
0.42519685 0.00787402 0.00000000
0.43307087 0.00787402 0.00000000
0.44094488 0.00787402 0.00000000
0.44881890 0.00787402 0.00000000
0.45669291 0.00787402 0.00000000
0.46456693 0.00787402 0.00000000
0.47244094 0.00787402 0.00000000
0.48031496 0.00787402 0.00000000
0.48818898 0.00787402 0.00000000
0.49606299 0.00787402 0.00000000
0.50393701 0.00787402 0.00000000
0.51181102 0.00787402 0.00000000
0.51968504 0.00787402 0.00000000
0.52755906 0.00787402 0.00000000
0.53543307 0.00787402 0.00000000
0.54330709 0.00787402 0.00000000
0.55118110 0.00787402 0.00000000
0.55905512 0.00787402 0.00000000
0.56692913 0.00787402 0.00000000
0.57480315 0.00787402 0.00000000
0.58267717 0.00787402 0.00000000
0.59055118 0.00787402 0.00000000
0.59842520 0.00787402 0.00000000
0.60629921 0.00787402 0.00000000
0.61417323 0.00787402 0.00000000
0.62204724 0.00787402 0.00000000
0.62992126 0.00787402 0.00000000
0.63779528 0.00787402 0.00000000
0.64566929 0.00787402 0.00000000
0.65354331 0.00787402 0.00000000
0.66141732 0.00787402 0.00000000
0.66929134 0.00787402 0.00000000
0.67716535 0.00787402 0.00000000
0.68503937 0.00787402 0.00000000
0.69291339 0.00787402 0.00000000
0.70078740 0.00787402 0.00000000
0.70866142 0.00787402 0.00000000
0.71653543 0.00787402 0.00000000
0.72440945 0.00787402 0.00000000
0.73228346 0.00787402 0.00000000
0.74015748 0.00787402 0.00000000
0.74803150 0.00787402 0.00000000
0.75590551 0.00787402 0.00000000
0.76377953 0.00787402 0.00000000
0.77165354 0.00787402 0.00000000
0.77952756 0.00787402 0.00000000
0.78740157 0.00787402 0.00000000
0.79527559 0.00787402 0.00000000
0.80314961 0.00787402 0.00000000
0.81102362 0.00787402 0.00000000
0.81889764 0.00787402 0.00000000
0.82677165 0.00787402 0.00000000
0.83464567 0.00787402 0.00000000
0.84251969 0.00787402 0.00000000
0.85039370 0.00787402 0.00000000
0.85826772 0.00787402 0.00000000
0.86614173 0.00787402 0.00000000
0.87401575 0.00787402 0.00000000
0.88188976 0.00787402 0.00000000
0.88976378 0.00787402 0.00000000
0.89763780 0.00787402 0.00000000
0.90551181 0.00787402 0.00000000
0.91338583 0.00787402 0.00000000
0.92125984 0.00787402 0.00000000
0.92913386 0.00787402 0.00000000
0.93700787 0.00787402 0.00000000
0.94488189 0.00787402 0.00000000
0.95275591 0.00787402 0.00000000
0.96062992 0.00787402 0.00000000
0.96850394 0.00787402 0.00000000
0.97637795 0.00787402 0.00000000
0.98425197 0.00787402 0.00000000
0.99212598 0.00787402 0.00000000
1.00000000 0.00787402 0.00000000
1.00787402 0.00787402 0.00000000
1.01574803 0.00787402 0.00000000
0.00000000 0.01574803 0.00000000
0.00787402 0.01574803 0.00000000
0.01574803 0.01574803 0.00000000
0.02362205 0.01574803 0.00000000
0.03149606 0.01574803 0.00000000
0.03937008 0.01574803 0.00000000
0.04724409 0.01574803 0.00000000
0.05511811 0.01574803 0.00000000
0.06299213 0.01574803 0.00000000
0.07086614 0.01574803 0.00000000
0.07874016 0.01574803 0.00000000
0.08661417 0.01574803 0.00000000
0.09448819 0.01574803 0.00000000
0.10236220 0.01574803 0.00000000
0.11023622 0.01574803 0.00000000
0.11811024 0.01574803 0.00000000
0.12598425 0.01574803 0.00000000
0.13385827 0.01574803 0.00000000
0.14173228 0.01574803 0.00000000
0.14960630 0.01574803 0.00000000
0.15748031 0.01574803 0.00000000
0.16535433 0.01574803 0.00000000
0.17322835 0.01574803 0.00000000
0.18110236 0.01574803 0.00000000
0.18897638 0.01574803 0.00000000
0.19685039 0.01574803 0.00000000
0.20472441 0.01574803 0.00000000
0.21259843 0.01574803 0.00000000
0.22047244 0.01574803 0.00000000
0.22834646 0.01574803 0.00000000
0.23622047 0.01574803 0.00000000
0.24409449 0.01574803 0.00000000
0.25196850 0.01574803 0.00000000
0.25984252 0.01574803 0.00000000
0.26771654 0.01574803 0.00000000
0.27559055 0.01574803 0.00000000
0.28346457 0.01574803 0.00000000
0.29133858 0.01574803 0.00000000
0.29921260 0.01574803 0.00000000
[...]
CELL_DATA 16641
 SCALARS pressure double 1
 LOOKUP_TABLE default
0.00000000
0.00000000
0.00000000
0.00000000
0.00000000
0.00000000
0.00000000
0.00000000
0.00000000
0.00000000
0.00000000
0.00000000
0.00000000
0.00000000
0.00000000
0.00000000
0.00000000
0.00000000
0.00000000
0.00000000
0.00000000
0.00000000
0.00000000
0.00000000
0.00000000
0.00000000
0.00000000
0.00000000
0.00000000
0.00000000
0.00000000
0.00000000
0.00000000
0.00000000
0.00000000
0.00000000
0.00000000
0.00000000
0.00000000
0.00000000
0.00000000
0.00000000
0.00000000
0.00000000
0.00000000
0.00000000
0.00000000
0.00000000
0.00000000
0.00000000
0.00000000
0.00000000
0.00000000
0.00000000
0.00000000
0.00000000
0.00000000
0.00000000
0.00000000
0.00000000
0.00000000
0.00000000
0.00000000
0.00000000
0.00000000
0.00000000
0.00000000
0.00000000
0.00000000
0.00000000
0.00000000
0.00000000
0.00000000
0.00000000
0.00000000
0.00000000
0.00000000
0.00000000
0.00000000
0.00000000
0.00000000
0.00000000
0.00000000
0.00000000
0.00000000
0.00000000
0.00000000
0.00000000
0.00000000
0.00000000
0.00000000
0.00000000
0.00000000
0.00000000
0.00000000
0.00000000
0.00000000
0.00000000
0.00000000
0.00000000
0.00000000
0.00000000
0.00000000
0.00000000
0.00000000
0.00000000
0.00000000
0.00000000
0.00000000
0.00000000
0.00000000
0.00000000
0.00000000
0.00000000
0.00000000
0.00000000
0.00000000
0.00000000
0.00000000
0.00000000
0.00000000
0.00000000
0.00000000
0.00000000
0.00000000
0.00000000
0.00000000
0.00000000
0.00000000
0.00000000
0.04432998
0.04434751
0.04436088
0.04437143
0.04437052
0.04435881
0.04433444
0.04429825
0.04425059
0.04419250
0.04412492
0.04404887
0.04396526
0.04387493
0.04377852
0.04367655
0.04356936
0.04345713
0.04333990
0.04321760
0.04309002
0.04295694
0.04281803
0.04267300
0.04252152
0.04236334
0.04219821
0.04202598
0.04184658
0.04166003
0.04146644
0.04126605
0.04105922
0.04084643
0.04062829
0.04040556
0.04017913
0.03995007
0.03971957
0.03948899
0.03925987
0.03903386
0.03881279
0.03859862
0.03839342
0.03819940
0.03801883
0.03785404
0.03770741
0.03758131
0.03747807
0.03739993
0.03734903
0.03732731
0.03733652
0.03737813
0.03745331
0.03756284
0.03770714
0.03788616
0.03809938
0.03834576
0.03862374
0.03893121
0.03926551
0.03962343
0.04000124
0.04039471
0.04079913
0.04120941
0.04162012
0.04202557
0.04241990
0.04279719
0.04315156
0.04347730
0.04376895
0.04402150
0.04423040
0.04439176
0.04450239
0.04455993
0.04456288
0.04451067
0.04440365
0.04424314
0.04403134
0.04377135
0.04346700
0.04312284
0.04274396
0.04233588
0.04190441
0.04145551
0.04099513
0.04052908
0.04006290
0.03960178
0.03915041
0.03871296
0.03829303
0.03789358
0.03751695
0.03716491
0.03683860
0.03653867
0.03626527
0.03601812
0.03579661
0.03559985
0.03542673
0.03527601
0.03514638
0.03503650
0.03494513
0.03487108
0.03481331
0.03477092
0.03474318
0.03472933
0.03472886
0.03474045
0.03476339
0.03479374
0.03482990
0.03486093
0.03488266
0.00000000
0.00000000
0.04431248
0.04433003
0.04433596
0.04434053
0.04433469
0.04432050
0.04429566
0.04426091
0.04421616
0.04416215
0.04409948
0.04402890
0.04395111
0.04386676
0.04377637
0.04368036
0.04357904
0.04347257
0.04336099
0.04324427
0.04312226
0.04299477
0.04286156
0.04272237
0.04257696
0.04242510
0.04226659
0.04210130
0.04192918
0.04175022
0.04156455
0.04137238
0.04117400
0.04096987
0.04076054
0.04054668
0.04032914
0.04010887
0.03988698
0.03966474
0.03944356
0.03922500
0.03901077
0.03880270
0.03860275
0.03841299
0.03823560
0.03807278
0.03792679
0.03779992
0.03769438
0.03761236
0.03755589
0.03752689
0.03752706
0.03755784
0.03762039
0.03771553
0.03784370
0.03800490
0.03819871
0.03842418
0.03867987
0.03896382
0.03927353
0.03960599
0.03995766
0.04032453
0.04070216
0.04108569
0.04146996
0.04184956
0.04221891
0.04257237
0.04290435
0.04320940
0.04348234
0.04371838
0.04391322
0.04406315
0.04416518
0.04421705
0.04421736
0.04416559
0.04406210
0.04390816
0.04370589
0.04345821
0.04316880
0.04284195
0.04248248
0.04209561
0.04168682
0.04126170
0.04082584
0.04038468
0.03994340
0.03950683
0.03907935
0.03866484
0.03826662
0.03788744
0.03752949
0.03719439
0.03688321
0.03659655
0.03633458
0.03609707
0.03588347
0.03569298
0.03552462
0.03537727
0.03524974
0.03514080
0.03504928
0.03497404
0.03491406
0.03486833
0.03483605
0.03481621
0.03480816
0.03481025
0.03482201
0.03483935
0.03486311
0.03488236
0.03490427
0.00000000
0.00000000
0.04429903
0.04432411
0.04433004
0.04433523
0.04432885
0.04431447
0.04428961
0.04425529
0.04421137
0.04415860
0.04409753
0.04402886
0.04395325
0.04387129
0.04378348
0.04369020
0.04359172
0.04348819
0.04337965
0.04326603
0.04314720
0.04302296
0.04289308
0.04275729
0.04261535
0.04246702
0.04231212
0.04215049
0.04198207
0.04180685
0.04162491
0.04143644
0.04124172
0.04104114
0.04083522
0.04062460
0.04041006
0.04019250
0.03997299
0.03975273
0.03953310
0.03931559
0.03910187
0.03889373
0.03869309
0.03850201
0.03832260
0.03815709
0.03800772
0.03787676
0.03776647
0.03767902
0.03761651
0.03758087
0.03757385
0.03759696
0.03765141
0.03773809
0.03785751
0.03800976
0.03819446
0.03841076
0.03865731
0.03893220
0.03923302
0.03955682
0.03990012
0.04025898
0.04062900
0.04100538
0.04138299
0.04175644
0.04212018
0.04246859
0.04279608
0.04309720
0.04336678
0.04360002
0.04379260
0.04394081
0.04404163
0.04409282
0.04409294
0.04404148
0.04393880
0.04378616
0.04358569
0.04334033
0.04305375
0.04273026
0.04237469
0.04199225
0.04158841
0.04116876
0.04073885
0.04030409
0.03986962
0.03944019
0.03902012
0.03861320
0.03822267
0.03785118
0.03750082
0.03717311
0.03686906
0.03658917
0.03633354
0.03610188
0.03589359
0.03570785
0.03554363
0.03539981
0.03527518
0.03516851
0.03507862
0.03500438
0.03494474
0.03489873
0.03486554
0.03484418
0.03483415
0.03483382
0.03484335
0.03485841
0.03488251
0.03490157
0.03493562
0.00000000
0.00000000
0.04428821
0.04431948
0.04432476
0.04432989
0.04432237
0.04430740
0.04428232
0.04424844
0.04420557
0.04415446
0.04409556
0.04402955
0.04395697
0.04387837
0.04379418
0.04370474
0.04361028
0.04351091
0.04340664
0.04329742
0.04318307
0.04306342
0.04293820
0.04280717
0.04267007
0.04252666
0.04237674
0.04222015
0.04205679
0.04188662
0.04170971
0.04152618
0.04133626
0.04114030
0.04093874
0.04073216
0.04052126
0.04030688
0.04009000
0.03987178
0.03965349
0.03943658
0.03922265
0.03901344
0.03881083
0.03861684
0.03843357
0.03826322
0.03810805
0.03797035
0.03785238
0.03775637
0.03768447
0.03763867
0.03762079
0.03763241
0.03767485
0.03774908
0.03785571
0.03799492
0.03816644
0.03836954
0.03860294
0.03886485
0.03915296
0.03946439
0.03979577
0.04014322
0.04050243
0.04086866
0.04123683
0.04160161
0.04195749
0.04229887
0.04262018
0.04291600
0.04318115
0.04341083
0.04360072
0.04374708
0.04384688
0.04389786
0.04389857
0.04384846
0.04374789
0.04359810
0.04340121
0.04316014
0.04287857
0.04256079
0.04221163
0.04183627
0.04144018
0.04102891
0.04060797
0.04018273
0.03975825
0.03933921
0.03892983
0.03853381
0.03815426
0.03779373
0.03745418
0.03713701
0.03684311
0.03657289
0.03632634
0.03610309
0.03590249
0.03572364
0.03556549
0.03542688
0.03530658
0.03520337
0.03511604
0.03504345
0.03498456
0.03493838
0.03490412
0.03488082
0.03486814
0.03486450
0.03487083
0.03488254
0.03490636
0.03492463
0.03497158
0.00000000
0.00000000
0.04428862
0.04432510
0.04433077
0.04433670
0.04432884
0.04431364
0.04428830
0.04425446
0.04421195
0.04416159
0.04410385
0.04403940
0.04396877
0.04389248
0.04381093
0.04372443
0.04363317
0.04353723
0.04343659
0.04333114
0.04322071
0.04310505
0.04298390
0.04285697
0.04272397
0.04258464
0.04243873
0.04228605
0.04212646
0.04195987
0.04178629
0.04160579
0.04141855
0.04122484
0.04102504
0.04081965
0.04060931
0.04039480
0.04017704
0.03995711
0.03973626
0.03951591
0.03929761
0.03908311
0.03887429
0.03867318
0.03848192
0.03830277
0.03813803
0.03799008
0.03786128
0.03775394
0.03767031
0.03761251
0.03758246
0.03758188
0.03761217
0.03767445
0.03776941
0.03789735
0.03805811
0.03825101
0.03847487
0.03872798
0.03900806
0.03931230
0.03963736
0.03997938
0.04033405
0.04069663
0.04106204
0.04142491
0.04177969
0.04212073
0.04244241
0.04273921
0.04300590
0.04323757
0.04342983
0.04357885
0.04368151
0.04373546
0.04373920
0.04369211
0.04359451
0.04344762
0.04325355
0.04301523
0.04273637
0.04242132
0.04207495
0.04170253
0.04130960
0.04090179
0.04048469
0.04006372
0.03964400
0.03923025
0.03882669
0.03843700
0.03806428
0.03771100
0.03737905
0.03706975
0.03678387
0.03652171
0.03628313
0.03606767
0.03587455
0.03570277
0.03555119
0.03541856
0.03530359
0.03520498
0.03512150
0.03505196
0.03499533
0.03495061
0.03491708
0.03489383
0.03488075
0.03487634
0.03488234
0.03489375
0.03492021
0.03494012
0.03500033
0.00000000
0.00000000
0.04429977
0.04433910
0.04434466
0.04435065
0.04434210
0.04432629
0.04430038
0.04426627
0.04422384
0.04417398
0.04411719
0.04405413
0.04398534
0.04391129
0.04383238
0.04374886
0.04366089
0.04356850
0.04347162
0.04337011
0.04326373
0.04315221
0.04303522
0.04291243
0.04278352
0.04264815
0.04250604
0.04235694
0.04220064
0.04203700
0.04186595
0.04168749
0.04150171
0.04130882
0.04110911
0.04090301
0.04069108
0.04047404
0.04025274
0.04002824
0.03980174
0.03957463
0.03934850
0.03912508
0.03890632
0.03869429
0.03849120
0.03829941
0.03812133
0.03795943
0.03781621
0.03769412
0.03759554
0.03752273
0.03747776
0.03746245
0.03747838
0.03752674
0.03760836
0.03772366
0.03787254
0.03805443
0.03826822
0.03851225
0.03878431
0.03908161
0.03940085
0.03973819
0.04008932
0.04044950
0.04081360
0.04117625
0.04153182
0.04187462
0.04219894
0.04249919
0.04277001
0.04300641
0.04320386
0.04335844
0.04346688
0.04352673
0.04353638
0.04349512
0.04340317
0.04326171
0.04307279
0.04283935
0.04256509
0.04225439
0.04191219
0.04154383
0.04115493
0.04075122
0.04033839
0.03992196
0.03950712
0.03909868
0.03870090
0.03831749
0.03795155
0.03760554
0.03728129
0.03698004
0.03670249
0.03644882
0.03621879
0.03601178
0.03582692
0.03566308
0.03551901
0.03539334
0.03528470
0.03519171
0.03511307
0.03504756
0.03499411
0.03495172
0.03491973
0.03489728
0.03488448
0.03487991
0.03488600
0.03489745
0.03492640
0.03494783
0.03501896
0.00000000
0.00000000
0.04432387
0.04436402
0.04436914
0.04437460
0.04436511
0.04434835
0.04432154
0.04428676
0.04424396
0.04419412
0.04413776
0.04407558
0.04400811
0.04393584
0.04385910
0.04377814
0.04369305
0.04360382
0.04351032
0.04341235
0.04330961
0.04320176
0.04308840
0.04296913
0.04284356
0.04271129
0.04257194
0.04242520
0.04227077
0.04210843
0.04193801
0.04175943
0.04157269
0.04137790
0.04117528
0.04096517
0.04074808
0.04052467
0.04029575
0.04006236
0.03982571
0.03958721
0.03934849
0.03911137
0.03887786
0.03865015
0.03843059
0.03822166
0.03802594
0.03784606
0.03768469
0.03754444
0.03742786
0.03733737
0.03727519
0.03724330
0.03724339
0.03727678
0.03734443
0.03744681
0.03758395
0.03775533
0.03795990
0.03819606
0.03846161
0.03875383
0.03906940
0.03940449
0.03975479
0.04011552
0.04048154
0.04084740
0.04120743
0.04155583
0.04188681
0.04219465
0.04247386
0.04271932
0.04292633
0.04309079
0.04320931
0.04327923
0.04329880
0.04326716
0.04318440
0.04305159
0.04287071
0.04264463
0.04237705
0.04207237
0.04173556
0.04137205
0.04098756
0.04058794
0.04017902
0.03976645
0.03935558
0.03895132
0.03855806
0.03817961
0.03781912
0.03747907
0.03716132
0.03686707
0.03659696
0.03635109
0.03612911
0.03593031
0.03575367
0.03559793
0.03546171
0.03534352
0.03524187
0.03515528
0.03508237
0.03502185
0.03497260
0.03493362
0.03490429
0.03488378
0.03487240
0.03486878
0.03487595
0.03488828
0.03491986
0.03494297
0.03502246
0.00000000
0.00000000
0.04436065
0.04439954
0.04440360
0.04440762
0.04439667
0.04437844
0.04435032
0.04431447
0.04427095
0.04422077
0.04416452
0.04410291
0.04403647
0.04396568
0.04389085
0.04381216
0.04372968
0.04364332
0.04355289
0.04345810
0.04335858
0.04325389
0.04314357
0.04302711
0.04290403
0.04277382
0.04263604
0.04249023
0.04233602
0.04217307
0.04200110
0.04181993
0.04162946
0.04142970
0.04122079
0.04100300
0.04077679
0.04054276
0.04030176
0.04005480
0.03980315
0.03954830
0.03929195
0.03903605
0.03878275
0.03853440
0.03829353
0.03806280
0.03784498
0.03764290
0.03745942
0.03729735
0.03715941
0.03704818
0.03696605
0.03691513
0.03689725
0.03691385
0.03696598
0.03705421
0.03717863
0.03733880
0.03753373
0.03776186
0.03802104
0.03830856
0.03862114
0.03895496
0.03930569
0.03966857
0.04003841
0.04040971
0.04077676
0.04113366
0.04147452
0.04179349
0.04208496
0.04234359
0.04256454
0.04274350
0.04287685
0.04296173
0.04299618
0.04297912
0.04291047
0.04279110
0.04262287
0.04240854
0.04215174
0.04185683
0.04152880
0.04117313
0.04079563
0.04040225
0.03999898
0.03959163
0.03918569
0.03878627
0.03839789
0.03802450
0.03766936
0.03733506
0.03702349
0.03673587
0.03647284
0.03623445
0.03602029
0.03582953
0.03566106
0.03551349
0.03538531
0.03527490
0.03518065
0.03510097
0.03503436
0.03497945
0.03493509
0.03490023
0.03487425
0.03485636
0.03484699
0.03484483
0.03485332
0.03486666
0.03490025
0.03492459
0.03500944
0.00000000
0.00000000
0.04441042
0.04444626
0.04444866
0.04445039
0.04443747
0.04441725
0.04438741
0.04435009
0.04430546
0.04425458
0.04419806
0.04413664
0.04407085
0.04400114
0.04392780
0.04385096
0.04377061
0.04368661
0.04359866
0.04350640
0.04340935
0.04330696
0.04319867
0.04308386
0.04296191
0.04283222
0.04269420
0.04254728
0.04239095
0.04222474
0.04204827
0.04186123
0.04166341
0.04145473
0.04123524
0.04100519
0.04076498
0.04051523
0.04025681
0.03999080
0.03971855
0.03944168
0.03916204
0.03888175
0.03860316
0.03832883
0.03806150
0.03780405
0.03755949
0.03733087
0.03712123
0.03693360
0.03677089
0.03663584
0.03653098
0.03645858
0.03642057
0.03641850
0.03645352
0.03652628
0.03663695
0.03678516
0.03696996
0.03718985
0.03744274
0.03772595
0.03803624
0.03836981
0.03872237
0.03908913
0.03946490
0.03984417
0.04022113
0.04058985
0.04094430
0.04127852
0.04158671
0.04186338
0.04210344
0.04230236
0.04245625
0.04256199
0.04261732
0.04262091
0.04257240
0.04247243
0.04232263
0.04212560
0.04188481
0.04160455
0.04128976
0.04094593
0.04057892
0.04019481
0.03979970
0.03939956
0.03900011
0.03860660
0.03822379
0.03785579
0.03750605
0.03717728
0.03687150
0.03659001
0.03633346
0.03610194
0.03589500
0.03571176
0.03555101
0.03541127
0.03529092
0.03518820
0.03510139
0.03502876
0.03496873
0.03491981
0.03488078
0.03485054
0.03482845
0.03481372
0.03480685
0.03480658
0.03481658
0.03483099
0.03486595
0.03489108
0.03497845
0.00000000
0.00000000
0.04447289
0.04450401
0.04450413
0.04450269
0.04448726
0.04446453
0.04443256
0.04439339
0.04434732
0.04429540
0.04423829
0.04417672
0.04411122
0.04404221
0.04396992
0.04389444
0.04381567
0.04373338
0.04364719
0.04355661
0.04346104
0.04335982
0.04325225
0.04313756
0.04301501
0.04288383
0.04274330
0.04259268
0.04243134
0.04225865
0.04207409
0.04187723
0.04166777
0.04144553
0.04121053
0.04096297
0.04070327
0.04043210
0.04015039
0.03985935
0.03956048
0.03925557
0.03894668
0.03863615
0.03832658
0.03802076
0.03772170
0.03743253
0.03715648
0.03689684
0.03665688
0.03643980
0.03624869
0.03608647
0.03595580
0.03585908
0.03579835
0.03577527
0.03579105
0.03584646
0.03594172
0.03607654
0.03625006
0.03646082
0.03670682
0.03698544
0.03729349
0.03762723
0.03798241
0.03835427
0.03873764
0.03912699
0.03951649
0.03990013
0.04027180
0.04062540
0.04095498
0.04125481
0.04151959
0.04174449
0.04192532
0.04205864
0.04214184
0.04217325
0.04215214
0.04207884
0.04195468
0.04178196
0.04156397
0.04130480
0.04100928
0.04068287
0.04033142
0.03996108
0.03957806
0.03918850
0.03879829
0.03841294
0.03803739
0.03767602
0.03733246
0.03700964
0.03670974
0.03643420
0.03618379
0.03595865
0.03575835
0.03558201
0.03542838
0.03529592
0.03518290
0.03508748
0.03500781
0.03494205
0.03488850
0.03484559
0.03481199
0.03478653
0.03476854
0.03475718
0.03475299
0.03475472
0.03476614
0.03478144
0.03481693
0.03484228
0.03492953
0.00000000
0.00000000
0.04454785
0.04457272
0.04456999
0.04456456
0.04454613
0.04452040
0.04448592
0.04444456
0.04439673
0.04434345
0.04428543
0.04422335
0.04415773
0.04408894
0.04401717
0.04394242
0.04386450
0.04378308
0.04369766
0.04360762
0.04351222
0.04341065
0.04330204
0.04318549
0.04306007
0.04292484
0.04277890
0.04262136
0.04245140
0.04226826
0.04207128
0.04185991
0.04163376
0.04139259
0.04113639
0.04086539
0.04058005
0.04028115
0.03996975
0.03964724
0.03931532
0.03897601
0.03863164
0.03828481
0.03793840
0.03759547
0.03725931
0.03693331
0.03662095
0.03632574
0.03605116
0.03580060
0.03557732
0.03538439
0.03522460
0.03510046
0.03501412
0.03496734
0.03496143
0.03499722
0.03507505
0.03519469
0.03535538
0.03555577
0.03579392
0.03606731
0.03637285
0.03670688
0.03706523
0.03744320
0.03783566
0.03823711
0.03864171
0.03904341
0.03943601
0.03981331
0.04016917
0.04049766
0.04079320
0.04105066
0.04126551
0.04143390
0.04155283
0.04162018
0.04163480
0.04159659
0.04150646
0.04136637
0.04117926
0.04094895
0.04068010
0.04037801
0.04004847
0.03969765
0.03933185
0.03895733
0.03858019
0.03820613
0.03784038
0.03748754
0.03715155
0.03683557
0.03654201
0.03627253
0.03602805
0.03580885
0.03561459
0.03544444
0.03529715
0.03517118
0.03506473
0.03497591
0.03490275
0.03484334
0.03479586
0.03475864
0.03473025
0.03470943
0.03469545
0.03468744
0.03468587
0.03468952
0.03470213
0.03471804
0.03475327
0.03477828
0.03486310
0.00000000
0.00000000
0.04463489
0.04465205
0.04464594
0.04463577
0.04461387
0.04458470
0.04454739
0.04450353
0.04445366
0.04439874
0.04433946
0.04427649
0.04421031
0.04414121
0.04406932
0.04399453
0.04391657
0.04383496
0.04374907
0.04365812
0.04356123
0.04345740
0.04334559
0.04322470
0.04309360
0.04295118
0.04279633
0.04262799
0.04244516
0.04224692
0.04203249
0.04180121
0.04155263
0.04128650
0.04100282
0.04070188
0.04038426
0.04005090
0.03970305
0.03934233
0.03897071
0.03859049
0.03820429
0.03781502
0.03742586
0.03704017
0.03666150
0.03629353
0.03593996
0.03560453
0.03529091
0.03500268
0.03474325
0.03451581
0.03432329
0.03416831
0.03405313
0.03397959
0.03394910
0.03396261
0.03402053
0.03412276
0.03426863
0.03445691
0.03468578
0.03495286
0.03525517
0.03558918
0.03595082
0.03633549
0.03673817
0.03715339
0.03757536
0.03799801
0.03841509
0.03882029
0.03920731
0.03957002
0.03990256
0.04019946
0.04045580
0.04066730
0.04083048
0.04094271
0.04100231
0.04100865
0.04096214
0.04086423
0.04071742
0.04052517
0.04029180
0.04002238
0.03972258
0.03939848
0.03905640
0.03870271
0.03834367
0.03798521
0.03763282
0.03729141
0.03696519
0.03665764
0.03637148
0.03610862
0.03587023
0.03565677
0.03546808
0.03530345
0.03516170
0.03504132
0.03494051
0.03485736
0.03478984
0.03473595
0.03469381
0.03466163
0.03463791
0.03462129
0.03461094
0.03460595
0.03460671
0.03461199
0.03462541
0.03464154
0.03467570
0.03469984
0.03478029
0.00000000
0.00000000
0.04473353
0.04474157
0.04473160
0.04471599
0.04469024
0.04465725
0.04461683
0.04457021
0.04451804
0.04446118
0.04440031
0.04433604
0.04426877
0.04419873
0.04412593
0.04405018
0.04397105
0.04388793
0.04380003
0.04370640
0.04360596
0.04349753
0.04337984
0.04325160
0.04311146
0.04295809
0.04279019
0.04260649
0.04240584
0.04218716
0.04194956
0.04169233
0.04141497
0.04111727
0.04079930
0.04046147
0.04010454
0.03972967
0.03933836
0.03893252
0.03851443
0.03808671
0.03765230
0.03721445
0.03677663
0.03634253
0.03591596
0.03550085
0.03510114
0.03472078
0.03436362
0.03403341
0.03373368
0.03346778
0.03323874
0.03304929
0.03290179
0.03279819
0.03274000
0.03272826
0.03276352
0.03284579
0.03297454
0.03314867
0.03336652
0.03362585
0.03392385
0.03425715
0.03462182
0.03501342
0.03542705
0.03585734
0.03629858
0.03674471
0.03718949
0.03762652
0.03804937
0.03845171
0.03882740
0.03917064
0.03947610
0.03973902
0.03995537
0.04012194
0.04023645
0.04029762
0.04030523
0.04026012
0.04016421
0.04002045
0.03983271
0.03960570
0.03934484
0.03905603
0.03874556
0.03841982
0.03808519
0.03774782
0.03741346
0.03708732
0.03677396
0.03647723
0.03620016
0.03594503
0.03571331
0.03550575
0.03532240
0.03516275
0.03502578
0.03491006
0.03481387
0.03473531
0.03467234
0.03462294
0.03458514
0.03455709
0.03453721
0.03452406
0.03451671
0.03451418
0.03451675
0.03452322
0.03453693
0.03455282
0.03458519
0.03460794
0.03468250
0.00000000
0.00000000
0.04484309
0.04484067
0.04482639
0.04480472
0.04477478