# vtk DataFile Version 3.0
particle point data
ASCII
DATASET STRUCTURED_GRID
DIMENSIONS 130 130 2
POINTS 33800 double
0.00000000 0.00000000 0.00000000
0.00787402 0.00000000 0.00000000
0.01574803 0.00000000 0.00000000
0.02362205 0.00000000 0.00000000
0.03149606 0.00000000 0.00000000
0.03937008 0.00000000 0.00000000
0.04724409 0.00000000 0.00000000
0.05511811 0.00000000 0.00000000
0.06299213 0.00000000 0.00000000
0.07086614 0.00000000 0.00000000
0.07874016 0.00000000 0.00000000
0.08661417 0.00000000 0.00000000
0.09448819 0.00000000 0.00000000
0.10236220 0.00000000 0.00000000
0.11023622 0.00000000 0.00000000
0.11811024 0.00000000 0.00000000
0.12598425 0.00000000 0.00000000
0.13385827 0.00000000 0.00000000
0.14173228 0.00000000 0.00000000
0.14960630 0.00000000 0.00000000
0.15748031 0.00000000 0.00000000
0.16535433 0.00000000 0.00000000
0.17322835 0.00000000 0.00000000
0.18110236 0.00000000 0.00000000
0.18897638 0.00000000 0.00000000
0.19685039 0.00000000 0.00000000
0.20472441 0.00000000 0.00000000
0.21259843 0.00000000 0.00000000
0.22047244 0.00000000 0.00000000
0.22834646 0.00000000 0.00000000
0.23622047 0.00000000 0.00000000
0.24409449 0.00000000 0.00000000
0.25196850 0.00000000 0.00000000
0.25984252 0.00000000 0.00000000
0.26771654 0.00000000 0.00000000
0.27559055 0.00000000 0.00000000
0.28346457 0.00000000 0.00000000
0.29133858 0.00000000 0.00000000
0.29921260 0.00000000 0.00000000
0.30708661 0.00000000 0.00000000
0.31496063 0.00000000 0.00000000
0.32283465 0.00000000 0.00000000
0.33070866 0.00000000 0.00000000
0.33858268 0.00000000 0.00000000
0.34645669 0.00000000 0.00000000
0.35433071 0.00000000 0.00000000
0.36220472 0.00000000 0.00000000
0.37007874 0.00000000 0.00000000
0.37795276 0.00000000 0.00000000
0.38582677 0.00000000 0.00000000
0.39370079 0.00000000 0.00000000
0.40157480 0.00000000 0.00000000
0.40944882 0.00000000 0.00000000
0.41732283 0.00000000 0.00000000
0.42519685 0.00000000 0.00000000
0.43307087 0.00000000 0.00000000
0.44094488 0.00000000 0.00000000
0.44881890 0.00000000 0.00000000
0.45669291 0.00000000 0.00000000
0.46456693 0.00000000 0.00000000
0.47244094 0.00000000 0.00000000
0.48031496 0.00000000 0.00000000
0.48818898 0.00000000 0.00000000
0.49606299 0.00000000 0.00000000
0.50393701 0.00000000 0.00000000
0.51181102 0.00000000 0.00000000
0.51968504 0.00000000 0.00000000
0.52755906 0.00000000 0.00000000
0.53543307 0.00000000 0.00000000
0.54330709 0.00000000 0.00000000
0.55118110 0.00000000 0.00000000
0.55905512 0.00000000 0.00000000
0.56692913 0.00000000 0.00000000
0.57480315 0.00000000 0.00000000
0.58267717 0.00000000 0.00000000
0.59055118 0.00000000 0.00000000
0.59842520 0.00000000 0.00000000
0.60629921 0.00000000 0.00000000
0.61417323 0.00000000 0.00000000
0.62204724 0.00000000 0.00000000
0.62992126 0.00000000 0.00000000
0.63779528 0.00000000 0.00000000
0.64566929 0.00000000 0.00000000
0.65354331 0.00000000 0.00000000
0.66141732 0.00000000 0.00000000
0.66929134 0.00000000 0.00000000
0.67716535 0.00000000 0.00000000
0.68503937 0.00000000 0.00000000
0.69291339 0.00000000 0.00000000
0.70078740 0.00000000 0.00000000
0.70866142 0.00000000 0.00000000
0.71653543 0.00000000 0.00000000
0.72440945 0.00000000 0.00000000
0.73228346 0.00000000 0.00000000
0.74015748 0.00000000 0.00000000
0.74803150 0.00000000 0.00000000
0.75590551 0.00000000 0.00000000
0.76377953 0.00000000 0.00000000
0.77165354 0.00000000 0.00000000
0.77952756 0.00000000 0.00000000
0.78740157 0.00000000 0.00000000
0.79527559 0.00000000 0.00000000
0.80314961 0.00000000 0.00000000
0.81102362 0.00000000 0.00000000
0.81889764 0.00000000 0.00000000
0.82677165 0.00000000 0.00000000
0.83464567 0.00000000 0.00000000
0.84251969 0.00000000 0.00000000
0.85039370 0.00000000 0.00000000
0.85826772 0.00000000 0.00000000
0.86614173 0.00000000 0.00000000
0.87401575 0.00000000 0.00000000
0.88188976 0.00000000 0.00000000
0.88976378 0.00000000 0.00000000
0.89763780 0.00000000 0.00000000
0.90551181 0.00000000 0.00000000
0.91338583 0.00000000 0.00000000
0.92125984 0.00000000 0.00000000
0.92913386 0.00000000 0.00000000
0.93700787 0.00000000 0.00000000
0.94488189 0.00000000 0.00000000
0.95275591 0.00000000 0.00000000
0.96062992 0.00000000 0.00000000
0.96850394 0.00000000 0.00000000
0.97637795 0.00000000 0.00000000
0.98425197 0.00000000 0.00000000
0.99212598 0.00000000 0.00000000
1.00000000 0.00000000 0.00000000
1.00787402 0.00000000 0.00000000
1.01574803 0.00000000 0.00000000
0.00000000 0.00787402 0.00000000
0.00787402 0.00787402 0.00000000
0.01574803 0.00787402 0.00000000
0.02362205 0.00787402 0.00000000
0.03149606 0.00787402 0.00000000
0.03937008 0.00787402 0.00000000
0.04724409 0.00787402 0.00000000
0.05511811 0.00787402 0.00000000
0.06299213 0.00787402 0.00000000
0.07086614 0.00787402 0.00000000
0.07874016 0.00787402 0.00000000
0.08661417 0.00787402 0.00000000
0.09448819 0.00787402 0.00000000
0.10236220 0.00787402 0.00000000
0.11023622 0.00787402 0.00000000
0.11811024 0.00787402 0.00000000
0.12598425 0.00787402 0.00000000
0.13385827 0.00787402 0.00000000
0.14173228 0.00787402 0.00000000
0.14960630 0.00787402 0.00000000
0.15748031 0.00787402 0.00000000
0.16535433 0.00787402 0.00000000
0.17322835 0.00787402 0.00000000
0.18110236 0.00787402 0.00000000
0.18897638 0.00787402 0.00000000
0.19685039 0.00787402 0.00000000
0.20472441 0.00787402 0.00000000
0.21259843 0.00787402 0.00000000
0.22047244 0.00787402 0.00000000
0.22834646 0.00787402 0.00000000
0.23622047 0.00787402 0.00000000
0.24409449 0.00787402 0.00000000
0.25196850 0.00787402 0.00000000
0.25984252 0.00787402 0.00000000
0.26771654 0.00787402 0.00000000
0.27559055 0.00787402 0.00000000
0.28346457 0.00787402 0.00000000
0.29133858 0.00787402 0.00000000
0.29921260 0.00787402 0.00000000
0.30708661 0.00787402 0.00000000
0.31496063 0.00787402 0.00000000
0.32283465 0.00787402 0.00000000
0.33070866 0.00787402 0.00000000
0.33858268 0.00787402 0.00000000
0.34645669 0.00787402 0.00000000
0.35433071 0.00787402 0.00000000
0.36220472 0.00787402 0.00000000
0.37007874 0.00787402 0.00000000
0.37795276 0.00787402 0.00000000
0.38582677 0.00787402 0.00000000
0.39370079 0.00787402 0.00000000
0.40157480 0.00787402 0.00000000
0.40944882 0.00787402 0.00000000
0.41732283 0.00787402 0.00000000
0.42519685 0.00787402 0.00000000
0.43307087 0.00787402 0.00000000
0.44094488 0.00787402 0.00000000
0.44881890 0.00787402 0.00000000
0.45669291 0.00787402 0.00000000
0.46456693 0.00787402 0.00000000
0.47244094 0.00787402 0.00000000
0.48031496 0.00787402 0.00000000
0.48818898 0.00787402 0.00000000
0.49606299 0.00787402 0.00000000
0.50393701 0.00787402 0.00000000
0.51181102 0.00787402 0.00000000
0.51968504 0.00787402 0.00000000
0.52755906 0.00787402 0.00000000
0.53543307 0.00787402 0.00000000
0.54330709 0.00787402 0.00000000
0.55118110 0.00787402 0.00000000
0.55905512 0.00787402 0.00000000
0.56692913 0.00787402 0.00000000
0.57480315 0.00787402 0.00000000
0.58267717 0.00787402 0.00000000
0.59055118 0.00787402 0.00000000
0.59842520 0.00787402 0.00000000
0.60629921 0.00787402 0.00000000
0.61417323 0.00787402 0.00000000
0.62204724 0.00787402 0.00000000
0.62992126 0.00787402 0.00000000
0.63779528 0.00787402 0.00000000
0.64566929 0.00787402 0.00000000
0.65354331 0.00787402 0.00000000
0.66141732 0.00787402 0.00000000
0.66929134 0.00787402 0.00000000
0.67716535 0.00787402 0.00000000
0.68503937 0.00787402 0.00000000
0.69291339 0.00787402 0.00000000
0.70078740 0.00787402 0.00000000
0.70866142 0.00787402 0.00000000
0.71653543 0.00787402 0.00000000
0.72440945 0.00787402 0.00000000
0.73228346 0.00787402 0.00000000
0.74015748 0.00787402 0.00000000
0.74803150 0.00787402 0.00000000
0.75590551 0.00787402 0.00000000
0.76377953 0.00787402 0.00000000
0.77165354 0.00787402 0.00000000
0.77952756 0.00787402 0.00000000
0.78740157 0.00787402 0.00000000
0.79527559 0.00787402 0.00000000
0.80314961 0.00787402 0.00000000
0.81102362 0.00787402 0.00000000
0.81889764 0.00787402 0.00000000
0.82677165 0.00787402 0.00000000
0.83464567 0.00787402 0.00000000
0.84251969 0.00787402 0.00000000
0.85039370 0.00787402 0.00000000
0.85826772 0.00787402 0.00000000
0.86614173 0.00787402 0.00000000
0.87401575 0.00787402 0.00000000
0.88188976 0.00787402 0.00000000
0.88976378 0.00787402 0.00000000
0.89763780 0.00787402 0.00000000
0.90551181 0.00787402 0.00000000
0.91338583 0.00787402 0.00000000
0.92125984 0.00787402 0.00000000
0.92913386 0.00787402 0.00000000
0.93700787 0.00787402 0.00000000
0.94488189 0.00787402 0.00000000
0.95275591 0.00787402 0.00000000
0.96062992 0.00787402 0.00000000
0.96850394 0.00787402 0.00000000
0.97637795 0.00787402 0.00000000
0.98425197 0.00787402 0.00000000
0.99212598 0.00787402 0.00000000
1.00000000 0.00787402 0.00000000
1.00787402 0.00787402 0.00000000
1.01574803 0.00787402 0.00000000
0.00000000 0.01574803 0.00000000
0.00787402 0.01574803 0.00000000
0.01574803 0.01574803 0.00000000
0.02362205 0.01574803 0.00000000
0.03149606 0.01574803 0.00000000
0.03937008 0.01574803 0.00000000
0.04724409 0.01574803 0.00000000
0.05511811 0.01574803 0.00000000
0.06299213 0.01574803 0.00000000
0.07086614 0.01574803 0.00000000
0.07874016 0.01574803 0.00000000
0.08661417 0.01574803 0.00000000
0.09448819 0.01574803 0.00000000
0.10236220 0.01574803 0.00000000
0.11023622 0.01574803 0.00000000
0.11811024 0.01574803 0.00000000
0.12598425 0.01574803 0.00000000
0.13385827 0.01574803 0.00000000
0.14173228 0.01574803 0.00000000
0.14960630 0.01574803 0.00000000
0.15748031 0.01574803 0.00000000
0.16535433 0.01574803 0.00000000
0.17322835 0.01574803 0.00000000
0.18110236 0.01574803 0.00000000
0.18897638 0.01574803 0.00000000
0.19685039 0.01574803 0.00000000
0.20472441 0.01574803 0.00000000
0.21259843 0.01574803 0.00000000
0.22047244 0.01574803 0.00000000
0.22834646 0.01574803 0.00000000
0.23622047 0.01574803 0.00000000
0.24409449 0.01574803 0.00000000
0.25196850 0.01574803 0.00000000
0.25984252 0.01574803 0.00000000
0.26771654 0.01574803 0.00000000
0.27559055 0.01574803 0.00000000
0.28346457 0.01574803 0.00000000
0.29133858 0.01574803 0.00000000
0.29921260 0.01574803 0.00000000
[...]
CELL_DATA 16641
 SCALARS pressure double 1
 LOOKUP_TABLE default
0.00000000
0.00000000
0.00000000
0.00000000
0.00000000
0.00000000
0.00000000
0.00000000
0.00000000
0.00000000
0.00000000
0.00000000
0.00000000
0.00000000
0.00000000
0.00000000
0.00000000
0.00000000
0.00000000
0.00000000
0.00000000
0.00000000
0.00000000
0.00000000
0.00000000
0.00000000
0.00000000
0.00000000
0.00000000
0.00000000
0.00000000
0.00000000
0.00000000
0.00000000
0.00000000
0.00000000
0.00000000
0.00000000
0.00000000
0.00000000
0.00000000
0.00000000
0.00000000
0.00000000
0.00000000
0.00000000
0.00000000
0.00000000
0.00000000
0.00000000
0.00000000
0.00000000
0.00000000
0.00000000
0.00000000
0.00000000
0.00000000
0.00000000
0.00000000
0.00000000
0.00000000
0.00000000
0.00000000
0.00000000
0.00000000
0.00000000
0.00000000
0.00000000
0.00000000
0.00000000
0.00000000
0.00000000
0.00000000
0.00000000
0.00000000
0.00000000
0.00000000
0.00000000
0.00000000
0.00000000
0.00000000
0.00000000
0.00000000
0.00000000
0.00000000
0.00000000
0.00000000
0.00000000
0.00000000
0.00000000
0.00000000
0.00000000
0.00000000
0.00000000
0.00000000
0.00000000
0.00000000
0.00000000
0.00000000
0.00000000
0.00000000
0.00000000
0.00000000
0.00000000
0.00000000
0.00000000
0.00000000
0.00000000
0.00000000
0.00000000
0.00000000
0.00000000
0.00000000
0.00000000
0.00000000
0.00000000
0.00000000
0.00000000
0.00000000
0.00000000
0.00000000
0.00000000
0.00000000
0.00000000
0.00000000
0.00000000
0.00000000
0.00000000
0.00000000
0.00000000
0.04411420
0.04413163
0.04414488
0.04415531
0.04415431
0.04414257
0.04411823
0.04408214
0.04403464
0.04397678
0.04390948
0.04383376
0.04375052
0.04366057
0.04356458
0.04346305
0.04335631
0.04324454
0.04312779
0.04300597
0.04287891
0.04274635
0.04260800
0.04246356
0.04231271
0.04215519
0.04199077
0.04181931
0.04164071
0.04145502
0.04126234
0.04106292
0.04085711
0.04064538
0.04042836
0.04020679
0.03998157
0.03975375
0.03952452
0.03929526
0.03906746
0.03884278
0.03862305
0.03841021
0.03820634
0.03801360
0.03783428
0.03767069
0.03752520
0.03740016
0.03729789
0.03722063
0.03717050
0.03714944
0.03715919
0.03720120
0.03727665
0.03738633
0.03753064
0.03770954
0.03792251
0.03816852
0.03844604
0.03875295
0.03908661
0.03944384
0.03982092
0.04021364
0.04061733
0.04102692
0.04143700
0.04184191
0.04223581
0.04261281
0.04296706
0.04329286
0.04358479
0.04383783
0.04404745
0.04420977
0.04432161
0.04438060
0.04438523
0.04433490
0.04422998
0.04407175
0.04386239
0.04360495
0.04330326
0.04296182
0.04258569
0.04218036
0.04175161
0.04130536
0.04084753
0.04038392
0.03992006
0.03946108
0.03901170
0.03857608
0.03815778
0.03775979
0.03738446
0.03703353
0.03670819
0.03640906
0.03613633
0.03588972
0.03566865
0.03547222
0.03529935
0.03514881
0.03501928
0.03490948
0.03481812
0.03474406
0.03468625
0.03464380
0.03461599
0.03460205
0.03460147
0.03461295
0.03463577
0.03466599
0.03470205
0.03473299
0.03475469
0.00000000
0.00000000
0.04409680
0.04411425
0.04412011
0.04412460
0.04411872
0.04410452
0.04407973
0.04404509
0.04400050
0.04394670
0.04388428
0.04381400
0.04373654
0.04365254
0.04356254
0.04346694
0.04336603
0.04325999
0.04314887
0.04303262
0.04291110
0.04278412
0.04265145
0.04251284
0.04236804
0.04221683
0.04205901
0.04189446
0.04172311
0.04154499
0.04136021
0.04116896
0.04097157
0.04076847
0.04056022
0.04034750
0.04013112
0.03991206
0.03969142
0.03947045
0.03925057
0.03903332
0.03882039
0.03861363
0.03841499
0.03822651
0.03805035
0.03788873
0.03774389
0.03761809
0.03751355
0.03743242
0.03737677
0.03734847
0.03734921
0.03738045
0.03744334
0.03753869
0.03766694
0.03782810
0.03802175
0.03824694
0.03850225
0.03878574
0.03909491
0.03942677
0.03977780
0.04014403
0.04052101
0.04090394
0.04128766
0.04166679
0.04203579
0.04238903
0.04272093
0.04302609
0.04329934
0.04353589
0.04373147
0.04388236
0.04398558
0.04403887
0.04404082
0.04399090
0.04388945
0.04373771
0.04353779
0.04329258
0.04300573
0.04268150
0.04232468
0.04194046
0.04153428
0.04111170
0.04067830
0.04023948
0.03980042
0.03936592
0.03894036
0.03852760
0.03813096
0.03775320
0.03739650
0.03706249
0.03675225
0.03646640
0.03620510
0.03596813
0.03575498
0.03556485
0.03539676
0.03524961
0.03512221
0.03501337
0.03492190
0.03484668
0.03478668
0.03474093
0.03470860
0.03468870
0.03468057
0.03468258
0.03469425
0.03471152
0.03473520
0.03475439
0.03477625
0.00000000
0.00000000
0.04408347
0.04410840
0.04411426
0.04411937
0.04411294
0.04409857
0.04407376
0.04403955
0.04399579
0.04394323
0.04388240
0.04381402
0.04373873
0.04365712
0.04356968
0.04347679
0.04337872
0.04327561
0.04316750
0.04305434
0.04293599
0.04281225
0.04268289
0.04254766
0.04240632
0.04225862
0.04210440
0.04194349
0.04177584
0.04160143
0.04142036
0.04123281
0.04103906
0.04083950
0.04063465
0.04042515
0.04021176
0.03999540
0.03977713
0.03955814
0.03933979
0.03912360
0.03891119
0.03870437
0.03850504
0.03831525
0.03813710
0.03797280
0.03782460
0.03769474
0.03758547
0.03749895
0.03743728
0.03740237
0.03739597
0.03741958
0.03747440
0.03756133
0.03768086
0.03783310
0.03801767
0.03823373
0.03847993
0.03875439
0.03905469
0.03937791
0.03972061
0.04007884
0.04044824
0.04082402
0.04120109
0.04157408
0.04193747
0.04228566
0.04261309
0.04291432
0.04318420
0.04341795
0.04361126
0.04376043
0.04386244
0.04391503
0.04391679
0.04386717
0.04376652
0.04361608
0.04341795
0.04317505
0.04289102
0.04257014
0.04221719
0.04183738
0.04143613
0.04101900
0.04059152
0.04015909
0.03972680
0.03929942
0.03888123
0.03847603
0.03808705
0.03771695
0.03736782
0.03704118
0.03673804
0.03645894
0.03620396
0.03597283
0.03576498
0.03557958
0.03541563
0.03527200
0.03514751
0.03504093
0.03495110
0.03487688
0.03481724
0.03477121
0.03473797
0.03471657
0.03470647
0.03470607
0.03471553
0.03473051
0.03475453
0.03477354
0.03480752
0.00000000
0.00000000
0.04407279
0.04410385
0.04410906
0.04411410
0.04410656
0.04409160
0.04406658
0.04403281
0.04399010
0.04393919
0.04388053
0.04381479
0.04374252
0.04366425
0.04358042
0.04349135
0.04339727
0.04329830
0.04319446
0.04308566
0.04297178
0.04285260
0.04272789
0.04259740
0.04246088
0.04231808
0.04216882
0.04201293
0.04185031
0.04168095
0.04150488
0.04132225
0.04113328
0.04093832
0.04073782
0.04053233
0.04032258
0.04010939
0.03989375
0.03967679
0.03945979
0.03924420
0.03903159
0.03882372
0.03862244
0.03842976
0.03824777
0.03807868
0.03792471
0.03778814
0.03767124
0.03757621
0.03750520
0.03746018
0.03744297
0.03745514
0.03749801
0.03757254
0.03767933
0.03781858
0.03799003
0.03819293
0.03842603
0.03868755
0.03897517
0.03928606
0.03961686
0.03996372
0.04032232
0.04068798
0.04105563
0.04141996
0.04177550
0.04211667
0.04243792
0.04273385
0.04299930
0.04322949
0.04342009
0.04356741
0.04366838
0.04372076
0.04372308
0.04367480
0.04357624
0.04342863
0.04323406
0.04299543
0.04271638
0.04240118
0.04205462
0.04168186
0.04128832
0.04087954
0.04046100
0.04003803
0.03961570
0.03919866
0.03879113
0.03839678
0.03801875
0.03765956
0.03732120
0.03700506
0.03671205
0.03644258
0.03619666
0.03597392
0.03577373
0.03559521
0.03543732
0.03529889
0.03517873
0.03507561
0.03498834
0.03491578
0.03485689
0.03481069
0.03477641
0.03475307
0.03474034
0.03473664
0.03474291
0.03475456
0.03477830
0.03479652
0.03484336
0.00000000
0.00000000
0.04407329
0.04410952
0.04411511
0.04412094
0.04411306
0.04409787
0.04407259
0.04403887
0.04399652
0.04394636
0.04388886
0.04382468
0.04375435
0.04367838
0.04359717
0.04351103
0.04342014
0.04332458
0.04322434
0.04311931
0.04300931
0.04289412
0.04277345
0.04264704
0.04251460
0.04237586
0.04223059
0.04207859
0.04191973
0.04175393
0.04158118
0.04140157
0.04121527
0.04102256
0.04082380
0.04061951
0.04041033
0.04019702
0.03998050
0.03976186
0.03954232
0.03932331
0.03910637
0.03889324
0.03868579
0.03848604
0.03829612
0.03811827
0.03795479
0.03780803
0.03768035
0.03757405
0.03749137
0.03743441
0.03740509
0.03740511
0.03743588
0.03749850
0.03759368
0.03772170
0.03788241
0.03807515
0.03829874
0.03855147
0.03883109
0.03913481
0.03945929
0.03980071
0.04015478
0.04051679
0.04088167
0.04124408
0.04159851
0.04193932
0.04226092
0.04255781
0.04282478
0.04305694
0.04324990
0.04339985
0.04350367
0.04355900
0.04356434
0.04351906
0.04342346
0.04327874
0.04308698
0.04285109
0.04257475
0.04226227
0.04191849
0.04154866
0.04115827
0.04075294
0.04033822
0.03991951
0.03950192
0.03909014
0.03868839
0.03830035
0.03792910
0.03757713
0.03724633
0.03693802
0.03665299
0.03639154
0.03615356
0.03593857
0.03574583
0.03557436
0.03542300
0.03529054
0.03517569
0.03507716
0.03499372
0.03492421
0.03486757
0.03482284
0.03478928
0.03476600
0.03475287
0.03474842
0.03475435
0.03476570
0.03479208
0.03481193
0.03487200
0.00000000
0.00000000
0.04408450
0.04412354
0.04412901
0.04413490
0.04412632
0.04411052
0.04408468
0.04405069
0.04400843
0.04395878
0.04390223
0.04383944
0.04377094
0.04369721
0.04361863
0.04353545
0.04344783
0.04335580
0.04325930
0.04315818
0.04305222
0.04294113
0.04282461
0.04270232
0.04257394
0.04243915
0.04229766
0.04214923
0.04199364
0.04183078
0.04166055
0.04148297
0.04129814
0.04110624
0.04090759
0.04070260
0.04049184
0.04027602
0.04005600
0.03983282
0.03960767
0.03938196
0.03915724
0.03893526
0.03871793
0.03850732
0.03830564
0.03811522
0.03793847
0.03777784
0.03763582
0.03751485
0.03741729
0.03734539
0.03730121
0.03728657
0.03730303
0.03735179
0.03743369
0.03754910
0.03769798
0.03787974
0.03809328
0.03833696
0.03860857
0.03890536
0.03922403
0.03956077
0.03991129
0.04027088
0.04063444
0.04099661
0.04135181
0.04169436
0.04201857
0.04231888
0.04258995
0.04282680
0.04302493
0.04318039
0.04328996
0.04335117
0.04336239
0.04332291
0.04323294
0.04309362
0.04290699
0.04267596
0.04240420
0.04209606
0.04175644
0.04139065
0.04100428
0.04060303
0.04019256
0.03977837
0.03936563
0.03895913
0.03856314
0.03818134
0.03781684
0.03747210
0.03714895
0.03684866
0.03657191
0.03631891
0.03608942
0.03588286
0.03569834
0.03553476
0.03539088
0.03526535
0.03515681
0.03506387
0.03498527
0.03491976
0.03486630
0.03482389
0.03479187
0.03476938
0.03475654
0.03475192
0.03475796
0.03476935
0.03479820
0.03481957
0.03489052
0.00000000
0.00000000
0.04410861
0.04414842
0.04415345
0.04415879
0.04414928
0.04413254
0.04410581
0.04407116
0.04402853
0.04397890
0.04392279
0.04386089
0.04379371
0.04372174
0.04364533
0.04356469
0.04347994
0.04339105
0.04329792
0.04320032
0.04309797
0.04299053
0.04287762
0.04275883
0.04263378
0.04250206
0.04236332
0.04221724
0.04206352
0.04190194
0.04173235
0.04155466
0.04136887
0.04117510
0.04097356
0.04076460
0.04054872
0.04032658
0.04009899
0.03986699
0.03963176
0.03939473
0.03915750
0.03892190
0.03868991
0.03846372
0.03824566
0.03803821
0.03784391
0.03766540
0.03750532
0.03736628
0.03725080
0.03716131
0.03709999
0.03706884
0.03706952
0.03710337
0.03717133
0.03727388
0.03741105
0.03758232
0.03778667
0.03802249
0.03828761
0.03857931
0.03889431
0.03922879
0.03957846
0.03993858
0.04030403
0.04066938
0.04102900
0.04137711
0.04170793
0.04201578
0.04229520
0.04254106
0.04274869
0.04291400
0.04303358
0.04310481
0.04312590
0.04309600
0.04301518
0.04288447
0.04270585
0.04248215
0.04221705
0.04191490
0.04158065
0.04121969
0.04083771
0.04044053
0.04003395
0.03962360
0.03921481
0.03881247
0.03842098
0.03804411
0.03768502
0.03734620
0.03702952
0.03673617
0.03646682
0.03622157
0.03600009
0.03580169
0.03562534
0.03546982
0.03533376
0.03521567
0.03511408
0.03502752
0.03495461
0.03489407
0.03484480
0.03480579
0.03477642
0.03475587
0.03474444
0.03474077
0.03474788
0.03476015
0.03479163
0.03481467
0.03489396
0.00000000
0.00000000
0.04414532
0.04418386
0.04418782
0.04419172
0.04418075
0.04416254
0.04413452
0.04409881
0.04405547
0.04400552
0.04394952
0.04388819
0.04382204
0.04375155
0.04367703
0.04359866
0.04351650
0.04343047
0.04334039
0.04324595
0.04314680
0.04304251
0.04293261
0.04281661
0.04269403
0.04256437
0.04242719
0.04228204
0.04212854
0.04196636
0.04179524
0.04161498
0.04142550
0.04122679
0.04101901
0.04080243
0.04057749
0.04034481
0.04010521
0.03985973
0.03960961
0.03935632
0.03910158
0.03884731
0.03859565
0.03834894
0.03810970
0.03788056
0.03766428
0.03746369
0.03728161
0.03712085
0.03698411
0.03687396
0.03679278
0.03674268
0.03672547
0.03674259
0.03679508
0.03688353
0.03700801
0.03716811
0.03736284
0.03759064
0.03784939
0.03813640
0.03844839
0.03878159
0.03913168
0.03949391
0.03986314
0.04023390
0.04060048
0.04095703
0.04129767
0.04161659
0.04190818
0.04216715
0.04238864
0.04256836
0.04270271
0.04278882
0.04282471
0.04280932
0.04274253
0.04262521
0.04245917
0.04224718
0.04199280
0.04170038
0.04137487
0.04102172
0.04064669
0.04025573
0.03985478
0.03944962
0.03904574
0.03864821
0.03826156
0.03788972
0.03753595
0.03720285
0.03689230
0.03660555
0.03634323
0.03610542
0.03589171
0.03570130
0.03553307
0.03538568
0.03525761
0.03514727
0.03505304
0.03497335
0.03490671
0.03485176
0.03480735
0.03477244
0.03474640
0.03472846
0.03471904
0.03471683
0.03472525
0.03473852
0.03477201
0.03479628
0.03488090
0.00000000
0.00000000
0.04419497
0.04423044
0.04423274
0.04423434
0.04422141
0.04420123
0.04417149
0.04413433
0.04408990
0.04403925
0.04398300
0.04392186
0.04385636
0.04378696
0.04371392
0.04363739
0.04355735
0.04347366
0.04338604
0.04329411
0.04319741
0.04309541
0.04298752
0.04287316
0.04275171
0.04262257
0.04248515
0.04233890
0.04218330
0.04201789
0.04184230
0.04165621
0.04145943
0.04125187
0.04103359
0.04080483
0.04056599
0.04031769
0.04006080
0.03979638
0.03952580
0.03925063
0.03897274
0.03869423
0.03841743
0.03814489
0.03787933
0.03762362
0.03738074
0.03715373
0.03694562
0.03675942
0.03659802
0.03646415
0.03636034
0.03628884
0.03625158
0.03625010
0.03628555
0.03635857
0.03646935
0.03661751
0.03680213
0.03702171
0.03727418
0.03755687
0.03786657
0.03819950
0.03855138
0.03891745
0.03929257
0.03967123
0.04004766
0.04041595
0.04077010
0.04110418
0.04141240
0.04168930
0.04192980
0.04212937
0.04228414
0.04239099
0.04244767
0.04245282
0.04240607
0.04230804
0.04216036
0.04196557
0.04172713
0.04144928
0.04113695
0.04079559
0.04043101
0.04004927
0.03965643
0.03925846
0.03886102
0.03846938
0.03808826
0.03772179
0.03737339
0.03704578
0.03674098
0.03646032
0.03620445
0.03597346
0.03576692
0.03558399
0.03542344
0.03528384
0.03516355
0.03506085
0.03497402
0.03490135
0.03484125
0.03479226
0.03475316
0.03472284
0.03470068
0.03468588
0.03467895
0.03467861
0.03468854
0.03470289
0.03473773
0.03476278
0.03484992
0.00000000
0.00000000
0.04425723
0.04428797
0.04428800
0.04428643
0.04427101
0.04424833
0.04421648
0.04417748
0.04413162
0.04407995
0.04402312
0.04396185
0.04389665
0.04382793
0.04375595
0.04368076
0.04360230
0.04352031
0.04343443
0.04334417
0.04324895
0.04314810
0.04304093
0.04292669
0.04280464
0.04267402
0.04253411
0.04238419
0.04222361
0.04205176
0.04186814
0.04167231
0.04146397
0.04124295
0.04100926
0.04076311
0.04050492
0.04023534
0.03995531
0.03966603
0.03936898
0.03906595
0.03875899
0.03845041
0.03814281
0.03783895
0.03754183
0.03725456
0.03698035
0.03672248
0.03648419
0.03626867
0.03607900
0.03591808
0.03578857
0.03569285
0.03563295
0.03561053
0.03562681
0.03568254
0.03577796
0.03591277
0.03608613
0.03629661
0.03654219
0.03682029
0.03712773
0.03746080
0.03781526
0.03818639
0.03856904
0.03895771
0.03934660
0.03972972
0.04010098
0.04045433
0.04078381
0.04108374
0.04134881
0.04157422
0.04175579
0.04189008
0.04197447
0.04200728
0.04198780
0.04191630
0.04179412
0.04162353
0.04140776
0.04115091
0.04085776
0.04053372
0.04018463
0.03981659
0.03943579
0.03904834
0.03866011
0.03827658
0.03790270
0.03754280
0.03720055
0.03687886
0.03657991
0.03630516
0.03605539
0.03583074
0.03563081
0.03545473
0.03530127
0.03516890
0.03505590
0.03496046
0.03488073
0.03481489
0.03476125
0.03471823
0.03468453
0.03465897
0.03464089
0.03462945
0.03462518
0.03462683
0.03463817
0.03465340
0.03468877
0.03471404
0.03480106
0.00000000
0.00000000
0.04433191
0.04435639
0.04435358
0.04434804
0.04432963
0.04430396
0.04426963
0.04422846
0.04418086
0.04412785
0.04407011
0.04400834
0.04394302
0.04387454
0.04380307
0.04372861
0.04365099
0.04356987
0.04348475
0.04339503
0.04329997
0.04319877
0.04309058
0.04297448
0.04284958
0.04271493
0.04256965
0.04241285
0.04224372
0.04206151
0.04186555
0.04165531
0.04143039
0.04119057
0.04093583
0.04066639
0.04038273
0.04008560
0.03977608
0.03945552
0.03912563
0.03878841
0.03844617
0.03810150
0.03775725
0.03741649
0.03708247
0.03675855
0.03644821
0.03615494
0.03588219
0.03563334
0.03541164
0.03522014
0.03506162
0.03493859
0.03485318
0.03480715
0.03480181
0.03483799
0.03491603
0.03503572
0.03519629
0.03539640
0.03563414
0.03590701
0.03621193
0.03654526
0.03690285
0.03728003
0.03767170
0.03807238
0.03847627
0.03887733
0.03926940
0.03964630
0.04000191
0.04033033
0.04062599
0.04088378
0.04109917
0.04126834
0.04138827
0.04145683
0.04147288
0.04143629
0.04134796
0.04120983
0.04102479
0.04079666
0.04053004
0.04023020
0.03990291
0.03955430
0.03919064
0.03881816
0.03844293
0.03807064
0.03770650
0.03735511
0.03702038
0.03670549
0.03641286
0.03614413
0.03590026
0.03568151
0.03548759
0.03531766
0.03517051
0.03504458
0.03493813
0.03484924
0.03477600
0.03471647
0.03466886
0.03463151
0.03460298
0.03458205
0.03456795
0.03455983
0.03455817
0.03456174
0.03457426
0.03459010
0.03462521
0.03465015
0.03473473
0.00000000
0.00000000
0.04441858
0.04443535
0.04442918
0.04441891
0.04439705
0.04436796
0.04433082
0.04428717
0.04423756
0.04418292
0.04412395
0.04406130
0.04399543
0.04392665
0.04385505
0.04378056
0.04370289
0.04362158
0.04353599
0.04344537
0.04334882
0.04324538
0.04313400
0.04301360
0.04288306
0.04274127
0.04258714
0.04241961
0.04223770
0.04204049
0.04182720
0.04159719
0.04135001
0.04108539
0.04080336
0.04050418
0.04018845
0.03985708
0.03951133
0.03915281
0.03878345
0.03840556
0.03802173
0.03763486
0.03724809
0.03686479
0.03648848
0.03612279
0.03577144
0.03543813
0.03512653
0.03484017
0.03458248
0.03435661
0.03416550
0.03401175
0.03389760
0.03382491
0.03379509
0.03380906
0.03386726
0.03396958
0.03411537
0.03430340
0.03453188
0.03479844
0.03510010
0.03543338
0.03579421
0.03617803
0.03657984
0.03699419
0.03741533
0.03783721
0.03825361
0.03865823
0.03904483
0.03940726
0.03973971
0.04003671
0.04029337
0.04050541
0.04066934
0.04078254
0.04084333
0.04085106
0.04080612
0.04070994
0.04056500
0.04037473
0.04014341
0.03987609
0.03957839
0.03925636
0.03891631
0.03856456
0.03820735
0.03785059
0.03749975
0.03715972
0.03683472
0.03652823
0.03624296
0.03598082
0.03574300
0.03552998
0.03534159
0.03517716
0.03503551
0.03491514
0.03481430
0.03473106
0.03466341
0.03460939
0.03456709
0.03453475
0.03451087
0.03449410
0.03448363
0.03447851
0.03447916
0.03448436
0.03449767
0.03451373
0.03454778
0.03457183
0.03465207
0.00000000
0.00000000
0.04451676
0.04452444
0.04451440
0.04449872
0.04447302
0.04444014
0.04439992
0.04435353
0.04430164
0.04424509
0.04418455
0.04412060
0.04405366
0.04398394
0.04391146
0.04383601
0.04375718
0.04367437
0.04358678
0.04349349
0.04339342
0.04328540
0.04316818
0.04304048
0.04290096
0.04274830
0.04258121
0.04239843
0.04219882
0.04198132
0.04174503
0.04148924
0.04121347
0.04091749
0.04060139
0.04026557
0.03991079
0.03953817
0.03914923
0.03874585
0.03833029
0.03790517
0.03747340
0.03703821
0.03660305
0.03617158
0.03574760
0.03533500
0.03493773
0.03455970
0.03420475
0.03387659
0.03357877
0.03331461
0.03308712
0.03289903
0.03275269
0.03265004
0.03259261
0.03258142
0.03261703
0.03269945
0.03282816
0.03300208
0.03321955
0.03347836
0.03377570
0.03410822
0.03447203
0.03486272
0.03527538
0.03570470
0.03614497
0.03659018
0.03703410
0.03747037
0.03789258
0.03829442
0.03866977
0.03901286
0.03931836
0.03958153
0.03979834
0.03996560
0.04008100
0.04014327
0.04015216
0.04010851
0.04001421
0.03987217
0.03968626
0.03946113
0.03920218
0.03891528
0.03860668
0.03828275
0.03794984
0.03761407
0.03728117
0.03695635
0.03664416
0.03634843
0.03607221
0.03581777
0.03558660
0.03537944
0.03519637
0.03503689
0.03490000
0.03478428
0.03468803
0.03460935
0.03454624
0.03449667
0.03445869
0.03443047
0.03441041
0.03439709
0.03438960
0.03438693
0.03438938
0.03439575
0.03440936
0.03442517
0.03445743
0.03448011
0.03455447
0.00000000
0.00000000
0.04462576
0.04462300
0.04460868
0.04458696
0.04455710