# vtk DataFile Version 3.0
particle point data
ASCII
DATASET STRUCTURED_GRID
DIMENSIONS 130 130 2
POINTS 33800 double
0.00000000 0.00000000 0.00000000
0.00787402 0.00000000 0.00000000
0.01574803 0.00000000 0.00000000
0.02362205 0.00000000 0.00000000
0.03149606 0.00000000 0.00000000
0.03937008 0.00000000 0.00000000
0.04724409 0.00000000 0.00000000
0.05511811 0.00000000 0.00000000
0.06299213 0.00000000 0.00000000
0.07086614 0.00000000 0.00000000
0.07874016 0.00000000 0.00000000
0.08661417 0.00000000 0.00000000
0.09448819 0.00000000 0.00000000
0.10236220 0.00000000 0.00000000
0.11023622 0.00000000 0.00000000
0.11811024 0.00000000 0.00000000
0.12598425 0.00000000 0.00000000
0.13385827 0.00000000 0.00000000
0.14173228 0.00000000 0.00000000
0.14960630 0.00000000 0.00000000
0.15748031 0.00000000 0.00000000
0.16535433 0.00000000 0.00000000
0.17322835 0.00000000 0.00000000
0.18110236 0.00000000 0.00000000
0.18897638 0.00000000 0.00000000
0.19685039 0.00000000 0.00000000
0.20472441 0.00000000 0.00000000
0.21259843 0.00000000 0.00000000
0.22047244 0.00000000 0.00000000
0.22834646 0.00000000 0.00000000
0.23622047 0.00000000 0.00000000
0.24409449 0.00000000 0.00000000
0.25196850 0.00000000 0.00000000
0.25984252 0.00000000 0.00000000
0.26771654 0.00000000 0.00000000
0.27559055 0.00000000 0.00000000
0.28346457 0.00000000 0.00000000
0.29133858 0.00000000 0.00000000
0.29921260 0.00000000 0.00000000
0.30708661 0.00000000 0.00000000
0.31496063 0.00000000 0.00000000
0.32283465 0.00000000 0.00000000
0.33070866 0.00000000 0.00000000
0.33858268 0.00000000 0.00000000
0.34645669 0.00000000 0.00000000
0.35433071 0.00000000 0.00000000
0.36220472 0.00000000 0.00000000
0.37007874 0.00000000 0.00000000
0.37795276 0.00000000 0.00000000
0.38582677 0.00000000 0.00000000
0.39370079 0.00000000 0.00000000
0.40157480 0.00000000 0.00000000
0.40944882 0.00000000 0.00000000
0.41732283 0.00000000 0.00000000
0.42519685 0.00000000 0.00000000
0.43307087 0.00000000 0.00000000
0.44094488 0.00000000 0.00000000
0.44881890 0.00000000 0.00000000
0.45669291 0.00000000 0.00000000
0.46456693 0.00000000 0.00000000
0.47244094 0.00000000 0.00000000
0.48031496 0.00000000 0.00000000
0.48818898 0.00000000 0.00000000
0.49606299 0.00000000 0.00000000
0.50393701 0.00000000 0.00000000
0.51181102 0.00000000 0.00000000
0.51968504 0.00000000 0.00000000
0.52755906 0.00000000 0.00000000
0.53543307 0.00000000 0.00000000
0.54330709 0.00000000 0.00000000
0.55118110 0.00000000 0.00000000
0.55905512 0.00000000 0.00000000
0.56692913 0.00000000 0.00000000
0.57480315 0.00000000 0.00000000
0.58267717 0.00000000 0.00000000
0.59055118 0.00000000 0.00000000
0.59842520 0.00000000 0.00000000
0.60629921 0.00000000 0.00000000
0.61417323 0.00000000 0.00000000
0.62204724 0.00000000 0.00000000
0.62992126 0.00000000 0.00000000
0.63779528 0.00000000 0.00000000
0.64566929 0.00000000 0.00000000
0.65354331 0.00000000 0.00000000
0.66141732 0.00000000 0.00000000
0.66929134 0.00000000 0.00000000
0.67716535 0.00000000 0.00000000
0.68503937 0.00000000 0.00000000
0.69291339 0.00000000 0.00000000
0.70078740 0.00000000 0.00000000
0.70866142 0.00000000 0.00000000
0.71653543 0.00000000 0.00000000
0.72440945 0.00000000 0.00000000
0.73228346 0.00000000 0.00000000
0.74015748 0.00000000 0.00000000
0.74803150 0.00000000 0.00000000
0.75590551 0.00000000 0.00000000
0.76377953 0.00000000 0.00000000
0.77165354 0.00000000 0.00000000
0.77952756 0.00000000 0.00000000
0.78740157 0.00000000 0.00000000
0.79527559 0.00000000 0.00000000
0.80314961 0.00000000 0.00000000
0.81102362 0.00000000 0.00000000
0.81889764 0.00000000 0.00000000
0.82677165 0.00000000 0.00000000
0.83464567 0.00000000 0.00000000
0.84251969 0.00000000 0.00000000
0.85039370 0.00000000 0.00000000
0.85826772 0.00000000 0.00000000
0.86614173 0.00000000 0.00000000
0.87401575 0.00000000 0.00000000
0.88188976 0.00000000 0.00000000
0.88976378 0.00000000 0.00000000
0.89763780 0.00000000 0.00000000
0.90551181 0.00000000 0.00000000
0.91338583 0.00000000 0.00000000
0.92125984 0.00000000 0.00000000
0.92913386 0.00000000 0.00000000
0.93700787 0.00000000 0.00000000
0.94488189 0.00000000 0.00000000
0.95275591 0.00000000 0.00000000
0.96062992 0.00000000 0.00000000
0.96850394 0.00000000 0.00000000
0.97637795 0.00000000 0.00000000
0.98425197 0.00000000 0.00000000
0.99212598 0.00000000 0.00000000
1.00000000 0.00000000 0.00000000
1.00787402 0.00000000 0.00000000
1.01574803 0.00000000 0.00000000
0.00000000 0.00787402 0.00000000
0.00787402 0.00787402 0.00000000
0.01574803 0.00787402 0.00000000
0.02362205 0.00787402 0.00000000
0.03149606 0.00787402 0.00000000
0.03937008 0.00787402 0.00000000
0.04724409 0.00787402 0.00000000
0.05511811 0.00787402 0.00000000
0.06299213 0.00787402 0.00000000
0.07086614 0.00787402 0.00000000
0.07874016 0.00787402 0.00000000
0.08661417 0.00787402 0.00000000
0.09448819 0.00787402 0.00000000
0.10236220 0.00787402 0.00000000
0.11023622 0.00787402 0.00000000
0.11811024 0.00787402 0.00000000
0.12598425 0.00787402 0.00000000
0.13385827 0.00787402 0.00000000
0.14173228 0.00787402 0.00000000
0.14960630 0.00787402 0.00000000
0.15748031 0.00787402 0.00000000
0.16535433 0.00787402 0.00000000
0.17322835 0.00787402 0.00000000
0.18110236 0.00787402 0.00000000
0.18897638 0.00787402 0.00000000
0.19685039 0.00787402 0.00000000
0.20472441 0.00787402 0.00000000
0.21259843 0.00787402 0.00000000
0.22047244 0.00787402 0.00000000
0.22834646 0.00787402 0.00000000
0.23622047 0.00787402 0.00000000
0.24409449 0.00787402 0.00000000
0.25196850 0.00787402 0.00000000
0.25984252 0.00787402 0.00000000
0.26771654 0.00787402 0.00000000
0.27559055 0.00787402 0.00000000
0.28346457 0.00787402 0.00000000
0.29133858 0.00787402 0.00000000
0.29921260 0.00787402 0.00000000
0.30708661 0.00787402 0.00000000
0.31496063 0.00787402 0.00000000
0.32283465 0.00787402 0.00000000
0.33070866 0.00787402 0.00000000
0.33858268 0.00787402 0.00000000
0.34645669 0.00787402 0.00000000
0.35433071 0.00787402 0.00000000
0.36220472 0.00787402 0.00000000
0.37007874 0.00787402 0.00000000
0.37795276 0.00787402 0.00000000
0.38582677 0.00787402 0.00000000
0.39370079 0.00787402 0.00000000
0.40157480 0.00787402 0.00000000
0.40944882 0.00787402 0.00000000
0.41732283 0.00787402 0.00000000
0.42519685 0.00787402 0.00000000
0.43307087 0.00787402 0.00000000
0.44094488 0.00787402 0.00000000
0.44881890 0.00787402 0.00000000
0.45669291 0.00787402 0.00000000
0.46456693 0.00787402 0.00000000
0.47244094 0.00787402 0.00000000
0.48031496 0.00787402 0.00000000
0.48818898 0.00787402 0.00000000
0.49606299 0.00787402 0.00000000
0.50393701 0.00787402 0.00000000
0.51181102 0.00787402 0.00000000
0.51968504 0.00787402 0.00000000
0.52755906 0.00787402 0.00000000
0.53543307 0.00787402 0.00000000
0.54330709 0.00787402 0.00000000
0.55118110 0.00787402 0.00000000
0.55905512 0.00787402 0.00000000
0.56692913 0.00787402 0.00000000
0.57480315 0.00787402 0.00000000
0.58267717 0.00787402 0.00000000
0.59055118 0.00787402 0.00000000
0.59842520 0.00787402 0.00000000
0.60629921 0.00787402 0.00000000
0.61417323 0.00787402 0.00000000
0.62204724 0.00787402 0.00000000
0.62992126 0.00787402 0.00000000
0.63779528 0.00787402 0.00000000
0.64566929 0.00787402 0.00000000
0.65354331 0.00787402 0.00000000
0.66141732 0.00787402 0.00000000
0.66929134 0.00787402 0.00000000
0.67716535 0.00787402 0.00000000
0.68503937 0.00787402 0.00000000
0.69291339 0.00787402 0.00000000
0.70078740 0.00787402 0.00000000
0.70866142 0.00787402 0.00000000
0.71653543 0.00787402 0.00000000
0.72440945 0.00787402 0.00000000
0.73228346 0.00787402 0.00000000
0.74015748 0.00787402 0.00000000
0.74803150 0.00787402 0.00000000
0.75590551 0.00787402 0.00000000
0.76377953 0.00787402 0.00000000
0.77165354 0.00787402 0.00000000
0.77952756 0.00787402 0.00000000
0.78740157 0.00787402 0.00000000
0.79527559 0.00787402 0.00000000
0.80314961 0.00787402 0.00000000
0.81102362 0.00787402 0.00000000
0.81889764 0.00787402 0.00000000
0.82677165 0.00787402 0.00000000
0.83464567 0.00787402 0.00000000
0.84251969 0.00787402 0.00000000
0.85039370 0.00787402 0.00000000
0.85826772 0.00787402 0.00000000
0.86614173 0.00787402 0.00000000
0.87401575 0.00787402 0.00000000
0.88188976 0.00787402 0.00000000
0.88976378 0.00787402 0.00000000
0.89763780 0.00787402 0.00000000
0.90551181 0.00787402 0.00000000
0.91338583 0.00787402 0.00000000
0.92125984 0.00787402 0.00000000
0.92913386 0.00787402 0.00000000
0.93700787 0.00787402 0.00000000
0.94488189 0.00787402 0.00000000
0.95275591 0.00787402 0.00000000
0.96062992 0.00787402 0.00000000
0.96850394 0.00787402 0.00000000
0.97637795 0.00787402 0.00000000
0.98425197 0.00787402 0.00000000
0.99212598 0.00787402 0.00000000
1.00000000 0.00787402 0.00000000
1.00787402 0.00787402 0.00000000
1.01574803 0.00787402 0.00000000
0.00000000 0.01574803 0.00000000
0.00787402 0.01574803 0.00000000
0.01574803 0.01574803 0.00000000
0.02362205 0.01574803 0.00000000
0.03149606 0.01574803 0.00000000
0.03937008 0.01574803 0.00000000
0.04724409 0.01574803 0.00000000
0.05511811 0.01574803 0.00000000
0.06299213 0.01574803 0.00000000
0.07086614 0.01574803 0.00000000
0.07874016 0.01574803 0.00000000
0.08661417 0.01574803 0.00000000
0.09448819 0.01574803 0.00000000
0.10236220 0.01574803 0.00000000
0.11023622 0.01574803 0.00000000
0.11811024 0.01574803 0.00000000
0.12598425 0.01574803 0.00000000
0.13385827 0.01574803 0.00000000
0.14173228 0.01574803 0.00000000
0.14960630 0.01574803 0.00000000
0.15748031 0.01574803 0.00000000
0.16535433 0.01574803 0.00000000
0.17322835 0.01574803 0.00000000
0.18110236 0.01574803 0.00000000
0.18897638 0.01574803 0.00000000
0.19685039 0.01574803 0.00000000
0.20472441 0.01574803 0.00000000
0.21259843 0.01574803 0.00000000
0.22047244 0.01574803 0.00000000
0.22834646 0.01574803 0.00000000
0.23622047 0.01574803 0.00000000
0.24409449 0.01574803 0.00000000
0.25196850 0.01574803 0.00000000
0.25984252 0.01574803 0.00000000
0.26771654 0.01574803 0.00000000
0.27559055 0.01574803 0.00000000
0.28346457 0.01574803 0.00000000
0.29133858 0.01574803 0.00000000
0.29921260 0.01574803 0.00000000
[...]
CELL_DATA 16641
 SCALARS pressure double 1
 LOOKUP_TABLE default
0.00000000
0.00000000
0.00000000
0.00000000
0.00000000
0.00000000
0.00000000
0.00000000
0.00000000
0.00000000
0.00000000
0.00000000
0.00000000
0.00000000
0.00000000
0.00000000
0.00000000
0.00000000
0.00000000
0.00000000
0.00000000
0.00000000
0.00000000
0.00000000
0.00000000
0.00000000
0.00000000
0.00000000
0.00000000
0.00000000
0.00000000
0.00000000
0.00000000
0.00000000
0.00000000
0.00000000
0.00000000
0.00000000
0.00000000
0.00000000
0.00000000
0.00000000
0.00000000
0.00000000
0.00000000
0.00000000
0.00000000
0.00000000
0.00000000
0.00000000
0.00000000
0.00000000
0.00000000
0.00000000
0.00000000
0.00000000
0.00000000
0.00000000
0.00000000
0.00000000
0.00000000
0.00000000
0.00000000
0.00000000
0.00000000
0.00000000
0.00000000
0.00000000
0.00000000
0.00000000
0.00000000
0.00000000
0.00000000
0.00000000
0.00000000
0.00000000
0.00000000
0.00000000
0.00000000
0.00000000
0.00000000
0.00000000
0.00000000
0.00000000
0.00000000
0.00000000
0.00000000
0.00000000
0.00000000
0.00000000
0.00000000
0.00000000
0.00000000
0.00000000
0.00000000
0.00000000
0.00000000
0.00000000
0.00000000
0.00000000
0.00000000
0.00000000
0.00000000
0.00000000
0.00000000
0.00000000
0.00000000
0.00000000
0.00000000
0.00000000
0.00000000
0.00000000
0.00000000
0.00000000
0.00000000
0.00000000
0.00000000
0.00000000
0.00000000
0.00000000
0.00000000
0.00000000
0.00000000
0.00000000
0.00000000
0.00000000
0.00000000
0.00000000
0.00000000
0.00000000
0.04441532
0.04443286
0.04444626
0.04445684
0.04445596
0.04444426
0.04441989
0.04438369
0.04433600
0.04427788
0.04421025
0.04413414
0.04405048
0.04396007
0.04386359
0.04376155
0.04365428
0.04354197
0.04342466
0.04330227
0.04317461
0.04304144
0.04290244
0.04275731
0.04260573
0.04244743
0.04228219
0.04210983
0.04193030
0.04174360
0.04154986
0.04134931
0.04114230
0.04092933
0.04071099
0.04048805
0.04026141
0.04003212
0.03980139
0.03957058
0.03934121
0.03911495
0.03889363
0.03867920
0.03847375
0.03827947
0.03809864
0.03793361
0.03778673
0.03766040
0.03755693
0.03747858
0.03742747
0.03740556
0.03741459
0.03745604
0.03753106
0.03764046
0.03778463
0.03796353
0.03817664
0.03842292
0.03870080
0.03900816
0.03934235
0.03970015
0.04007782
0.04047112
0.04087535
0.04128542
0.04169587
0.04210101
0.04249499
0.04287188
0.04322579
0.04355101
0.04384209
0.04409400
0.04430220
0.04446281
0.04457264
0.04462933
0.04463138
0.04457823
0.04447025
0.04430875
0.04409596
0.04383497
0.04352963
0.04318449
0.04280466
0.04239566
0.04196332
0.04151359
0.04105243
0.04058566
0.04011882
0.03965709
0.03920519
0.03876727
0.03834692
0.03794710
0.03757018
0.03721788
0.03689136
0.03659127
0.03631773
0.03607049
0.03584891
0.03565211
0.03547896
0.03532823
0.03519860
0.03508874
0.03499739
0.03492336
0.03486563
0.03482327
0.03479557
0.03478175
0.03478132
0.03479294
0.03481592
0.03484630
0.03488249
0.03491354
0.03493528
0.00000000
0.00000000
0.04439780
0.04441537
0.04442132
0.04442590
0.04442008
0.04440589
0.04438105
0.04434628
0.04430151
0.04424747
0.04418476
0.04411413
0.04403628
0.04395187
0.04386141
0.04376534
0.04366394
0.04355739
0.04344574
0.04332894
0.04320684
0.04307926
0.04294596
0.04280668
0.04266117
0.04250920
0.04235058
0.04218517
0.04201291
0.04183382
0.04164800
0.04145566
0.04125712
0.04105280
0.04084328
0.04062923
0.04041147
0.04019098
0.03996887
0.03974640
0.03952498
0.03930617
0.03909169
0.03888336
0.03868316
0.03849315
0.03831550
0.03815243
0.03800620
0.03787908
0.03777332
0.03769107
0.03763439
0.03760519
0.03760517
0.03763577
0.03769815
0.03779314
0.03792117
0.03808224
0.03827592
0.03850126
0.03875683
0.03904066
0.03935024
0.03968255
0.04003407
0.04040076
0.04077818
0.04116147
0.04154548
0.04192476
0.04229375
0.04264680
0.04297831
0.04328284
0.04355521
0.04379062
0.04398477
0.04413397
0.04423520
0.04428623
0.04428567
0.04423298
0.04412856
0.04397366
0.04377041
0.04352176
0.04323139
0.04290359
0.04254320
0.04215544
0.04174580
0.04131988
0.04088326
0.04044140
0.03999948
0.03956232
0.03913432
0.03871934
0.03832071
0.03794118
0.03758292
0.03724756
0.03693617
0.03664934
0.03638723
0.03614961
0.03593593
0.03574539
0.03557700
0.03542963
0.03530208
0.03519315
0.03510164
0.03502642
0.03496645
0.03492075
0.03488849
0.03486869
0.03486066
0.03486278
0.03487456
0.03489193
0.03491572
0.03493498
0.03495689
0.00000000
0.00000000
0.04438432
0.04440943
0.04441538
0.04442059
0.04441422
0.04439985
0.04437498
0.04434065
0.04429671
0.04424391
0.04418279
0.04411408
0.04403841
0.04395639
0.04386851
0.04377517
0.04367662
0.04357302
0.04346440
0.04335070
0.04323179
0.04310747
0.04297749
0.04284161
0.04269957
0.04255114
0.04239612
0.04223438
0.04206582
0.04189046
0.04170838
0.04151975
0.04132486
0.04112411
0.04091800
0.04070719
0.04049243
0.04027466
0.04005492
0.03983443
0.03961456
0.03939680
0.03918283
0.03897444
0.03877355
0.03858220
0.03840254
0.03823677
0.03808716
0.03795596
0.03784542
0.03775775
0.03769502
0.03765917
0.03765196
0.03767488
0.03772916
0.03781568
0.03793495
0.03808705
0.03827162
0.03848780
0.03873421
0.03900898
0.03930966
0.03963331
0.03997646
0.04033514
0.04070495
0.04108109
0.04145843
0.04183156
0.04219494
0.04254294
0.04286997
0.04317057
0.04343958
0.04367219
0.04386408
0.04401156
0.04411159
0.04416193
0.04416118
0.04410881
0.04400519
0.04385160
0.04365016
0.04340383
0.04311629
0.04279186
0.04243537
0.04205204
0.04164736
0.04122691
0.04079625
0.04036080
0.03992569
0.03949569
0.03907510
0.03866772
0.03827678
0.03790494
0.03755428
0.03722632
0.03692206
0.03664201
0.03638624
0.03615447
0.03594611
0.03576031
0.03559606
0.03545221
0.03532757
0.03522090
0.03513102
0.03505679
0.03499718
0.03495118
0.03491801
0.03489669
0.03488667
0.03488637
0.03489593
0.03491101
0.03493512
0.03495421
0.03498827
0.00000000
0.00000000
0.04437347
0.04440478
0.04441007
0.04441523
0.04440772
0.04439275
0.04436766
0.04433377
0.04429088
0.04423974
0.04418080
0.04411474
0.04404210
0.04396345
0.04387920
0.04378969
0.04369516
0.04359572
0.04349139
0.04338209
0.04326767
0.04314793
0.04302263
0.04289150
0.04275431
0.04261080
0.04246077
0.04230406
0.04214057
0.04197027
0.04179322
0.04160953
0.04141945
0.04122331
0.04102157
0.04081479
0.04060369
0.04038909
0.04017200
0.03995354
0.03973501
0.03951785
0.03930367
0.03909420
0.03889134
0.03869708
0.03851355
0.03834294
0.03818752
0.03804956
0.03793135
0.03783510
0.03776297
0.03771696
0.03769887
0.03771030
0.03775256
0.03782662
0.03793308
0.03807214
0.03824353
0.03844649
0.03867975
0.03894153
0.03922949
0.03954077
0.03987198
0.04021926
0.04057825
0.04094424
0.04131213
0.04167660
0.04203212
0.04237309
0.04269394
0.04298925
0.04325383
0.04348288
0.04367208
0.04381771
0.04391672
0.04396686
0.04396670
0.04391569
0.04381418
0.04366344
0.04346559
0.04322356
0.04294104
0.04262232
0.04227224
0.04189601
0.04149908
0.04108702
0.04066534
0.04023941
0.03981430
0.03939469
0.03898481
0.03858833
0.03820839
0.03784752
0.03750767
0.03719027
0.03689617
0.03662578
0.03637910
0.03615575
0.03595507
0.03577616
0.03561798
0.03547934
0.03535904
0.03525582
0.03516850
0.03509592
0.03503704
0.03499087
0.03495664
0.03493336
0.03492069
0.03491707
0.03492343
0.03493516
0.03495900
0.03497729
0.03502426
0.00000000
0.00000000
0.04437385
0.04441039
0.04441607
0.04442202
0.04441418
0.04439898
0.04437364
0.04433978
0.04429725
0.04424685
0.04418907
0.04412457
0.04405389
0.04397754
0.04389593
0.04380937
0.04371805
0.04362204
0.04352133
0.04341582
0.04330531
0.04318957
0.04306834
0.04294132
0.04280824
0.04266880
0.04252279
0.04236999
0.04221028
0.04204356
0.04186984
0.04168919
0.04150179
0.04130790
0.04110791
0.04090233
0.04069179
0.04047706
0.04025907
0.04003892
0.03981783
0.03959722
0.03937866
0.03916390
0.03895482
0.03875344
0.03856191
0.03838249
0.03821749
0.03806928
0.03794021
0.03783263
0.03774876
0.03769073
0.03766047
0.03765969
0.03768979
0.03775189
0.03784669
0.03797447
0.03813508
0.03832784
0.03855157
0.03880454
0.03908448
0.03938856
0.03971345
0.04005529
0.04040975
0.04077209
0.04113723
0.04149979
0.04185421
0.04219485
0.04251606
0.04281236
0.04307847
0.04330952
0.04350110
0.04364938
0.04375125
0.04380437
0.04380724
0.04375924
0.04366071
0.04351286
0.04331783
0.04307855
0.04279873
0.04248274
0.04213545
0.04176216
0.04136839
0.04095979
0.04054196
0.04012031
0.03969997
0.03928565
0.03888159
0.03849146
0.03811835
0.03776474
0.03743251
0.03712298
0.03683690
0.03657458
0.03633589
0.03612033
0.03592714
0.03575531
0.03560370
0.03547105
0.03535607
0.03525746
0.03517399
0.03510446
0.03504784
0.03500313
0.03496962
0.03494639
0.03493333
0.03492894
0.03493496
0.03494639
0.03497287
0.03499280
0.03505304
0.00000000
0.00000000
0.04438498
0.04442438
0.04442996
0.04443598
0.04442744
0.04441162
0.04438570
0.04435158
0.04430912
0.04425923
0.04420240
0.04413929
0.04407044
0.04399635
0.04391737
0.04383380
0.04374576
0.04365331
0.04355637
0.04345479
0.04334834
0.04323674
0.04311968
0.04299681
0.04286781
0.04273234
0.04259013
0.04244092
0.04228450
0.04212073
0.04194954
0.04177093
0.04158500
0.04139193
0.04119204
0.04098574
0.04077361
0.04055634
0.04033482
0.04011008
0.03988333
0.03965596
0.03942956
0.03920588
0.03898684
0.03877453
0.03857116
0.03837909
0.03820073
0.03803855
0.03789507
0.03777272
0.03767389
0.03760084
0.03755564
0.03754013
0.03755585
0.03760402
0.03768548
0.03780061
0.03794933
0.03813108
0.03834473
0.03858862
0.03886053
0.03915769
0.03947676
0.03981392
0.04016484
0.04052478
0.04088862
0.04125095
0.04160618
0.04194858
0.04227244
0.04257218
0.04284244
0.04307822
0.04327500
0.04342884
0.04353650
0.04359552
0.04360429
0.04356212
0.04346924
0.04332682
0.04313694
0.04290253
0.04262731
0.04231567
0.04197256
0.04160332
0.04121359
0.04080909
0.04039553
0.03997841
0.03956296
0.03915396
0.03875569
0.03837185
0.03800553
0.03765919
0.03733467
0.03703321
0.03675547
0.03650166
0.03627151
0.03606443
0.03587950
0.03571562
0.03557152
0.03544584
0.03533719
0.03524421
0.03516558
0.03510008
0.03504664
0.03500427
0.03497229
0.03494986
0.03493708
0.03493252
0.03493864
0.03495011
0.03497908
0.03500053
0.03507170
0.00000000
0.00000000
0.04440908
0.04444929
0.04445444
0.04445993
0.04445045
0.04443368
0.04440687
0.04437207
0.04432924
0.04427936
0.04422296
0.04416073
0.04409321
0.04402088
0.04394409
0.04386307
0.04377792
0.04368863
0.04359507
0.04349704
0.04339423
0.04328631
0.04317288
0.04305354
0.04292788
0.04279551
0.04265607
0.04250922
0.04235467
0.04219220
0.04202164
0.04184291
0.04165601
0.04146105
0.04125824
0.04104794
0.04083064
0.04060700
0.04037785
0.04014421
0.03990730
0.03966853
0.03942954
0.03919213
0.03895832
0.03873032
0.03851046
0.03830124
0.03810522
0.03792505
0.03776340
0.03762287
0.03750603
0.03741529
0.03735287
0.03732075
0.03732063
0.03735383
0.03742129
0.03752351
0.03766048
0.03783171
0.03803614
0.03827216
0.03853757
0.03882964
0.03914504
0.03947996
0.03983005
0.04019056
0.04055631
0.04092187
0.04128156
0.04162957
0.04196010
0.04226744
0.04254610
0.04279094
0.04299728
0.04316102
0.04327876
0.04334786
0.04336656
0.04333401
0.04325032
0.04311655
0.04293470
0.04270766
0.04243912
0.04213349
0.04179577
0.04143138
0.04104605
0.04064564
0.04023598
0.03982274
0.03941125
0.03900644
0.03861270
0.03823382
0.03787296
0.03753260
0.03721459
0.03692013
0.03664985
0.03640384
0.03618177
0.03598290
0.03580620
0.03565043
0.03551419
0.03539600
0.03529436
0.03520778
0.03513488
0.03507437
0.03502514
0.03498618
0.03495687
0.03493638
0.03492501
0.03492141
0.03492860
0.03494095
0.03497256
0.03499569
0.03507523
0.00000000
0.00000000
0.04444585
0.04448482
0.04448890
0.04449296
0.04448202
0.04446378
0.04443566
0.04439979
0.04435623
0.04430601
0.04424972
0.04418806
0.04412157
0.04405072
0.04397583
0.04389709
0.04381455
0.04372814
0.04363765
0.04354280
0.04344322
0.04333846
0.04322807
0.04311154
0.04298837
0.04285808
0.04272020
0.04257429
0.04241996
0.04225688
0.04208478
0.04190346
0.04171282
0.04151289
0.04130378
0.04108579
0.04085935
0.04062509
0.04038384
0.04013662
0.03988470
0.03962956
0.03937291
0.03911671
0.03886309
0.03861443
0.03837324
0.03814219
0.03792406
0.03772167
0.03753789
0.03737552
0.03723729
0.03712580
0.03704341
0.03699226
0.03697415
0.03699055
0.03704248
0.03713053
0.03725479
0.03741480
0.03760959
0.03783757
0.03809661
0.03838398
0.03869640
0.03903005
0.03938059
0.03974324
0.04011283
0.04048385
0.04085056
0.04120708
0.04154751
0.04186600
0.04215692
0.04241496
0.04263525
0.04281349
0.04294607
0.04303014
0.04306373
0.04304577
0.04297619
0.04285587
0.04268668
0.04247139
0.04221362
0.04191777
0.04158883
0.04123228
0.04085393
0.04045977
0.04005577
0.03964774
0.03924119
0.03884122
0.03845236
0.03807854
0.03772304
0.03738844
0.03707662
0.03678880
0.03652561
0.03628710
0.03607285
0.03588203
0.03571352
0.03556593
0.03543774
0.03532734
0.03523311
0.03515344
0.03508685
0.03503197
0.03498763
0.03495279
0.03492683
0.03490896
0.03489961
0.03489747
0.03490598
0.03491933
0.03495296
0.03497732
0.03506222
0.00000000
0.00000000
0.04449564
0.04453156
0.04453399
0.04453574
0.04452283
0.04450261
0.04447276
0.04443542
0.04439075
0.04433982
0.04428326
0.04422179
0.04415595
0.04408618
0.04401278
0.04393589
0.04385549
0.04377143
0.04368343
0.04359111
0.04349400
0.04339156
0.04328320
0.04316831
0.04304629
0.04291652
0.04277840
0.04263137
0.04247493
0.04230859
0.04213198
0.04194478
0.04174679
0.04153792
0.04131823
0.04108796
0.04084751
0.04059752
0.04033882
0.04007253
0.03979999
0.03952281
0.03924285
0.03896223
0.03868330
0.03840863
0.03814095
0.03788317
0.03763826
0.03740930
0.03719934
0.03701139
0.03684837
0.03671302
0.03660789
0.03653523
0.03649698
0.03649470
0.03652951
0.03660209
0.03671258
0.03686063
0.03704528
0.03726502
0.03751777
0.03780084
0.03811097
0.03844438
0.03879675
0.03916330
0.03953884
0.03991782
0.04029447
0.04066283
0.04101686
0.04135062
0.04165829
0.04193438
0.04217380
0.04237203
0.04252517
0.04263011
0.04268460
0.04268731
0.04263788
0.04253697
0.04238622
0.04218823
0.04194649
0.04166529
0.04134959
0.04100488
0.04063703
0.04025213
0.03985629
0.03945548
0.03905541
0.03866136
0.03827807
0.03790965
0.03755956
0.03723049
0.03692447
0.03664278
0.03638609
0.03615446
0.03594744
0.03576415
0.03560337
0.03546363
0.03534328
0.03524058
0.03515379
0.03508119
0.03502118
0.03497230
0.03493330
0.03490308
0.03488101
0.03486631
0.03485946
0.03485921
0.03486924
0.03488367
0.03491865
0.03494380
0.03503124
0.00000000
0.00000000
0.04455813
0.04458934
0.04458949
0.04458807
0.04457265
0.04454992
0.04451793
0.04447874
0.04443262
0.04438066
0.04432350
0.04426188
0.04419632
0.04412725
0.04405491
0.04397937
0.04390055
0.04381821
0.04373197
0.04364134
0.04354572
0.04344444
0.04333680
0.04322205
0.04309942
0.04296816
0.04282752
0.04267681
0.04251534
0.04234251
0.04215780
0.04196078
0.04175114
0.04152870
0.04129348
0.04104569
0.04078573
0.04051429
0.04023228
0.03994094
0.03964174
0.03933649
0.03902725
0.03871636
0.03840641
0.03810022
0.03780078
0.03751123
0.03723481
0.03697480
0.03673448
0.03651705
0.03632561
0.03616307
0.03603210
0.03593510
0.03587411
0.03585079
0.03586636
0.03592156
0.03601664
0.03615129
0.03632465
0.03653527
0.03678112
0.03705960
0.03736750
0.03770108
0.03805609
0.03842775
0.03881090
0.03919999
0.03958920
0.03997250
0.04034378
0.04069695
0.04102603
0.04132531
0.04158948
0.04181372
0.04199383
0.04212638
0.04220877
0.04223931
0.04221732
0.04214310
0.04201800
0.04184435
0.04162541
0.04136531
0.04106890
0.04074161
0.04038933
0.04001820
0.03963445
0.03924422
0.03885341
0.03846751
0.03809149
0.03772970
0.03738578
0.03706267
0.03676254
0.03648681
0.03623627
0.03601102
0.03581066
0.03563428
0.03548064
0.03534818
0.03523517
0.03513978
0.03506014
0.03499442
0.03494091
0.03489804
0.03486447
0.03483905
0.03482108
0.03480975
0.03480559
0.03480733
0.03481878
0.03483410
0.03486963
0.03489500
0.03498231
0.00000000
0.00000000
0.04463314
0.04465809
0.04465540
0.04464999
0.04463156
0.04460583
0.04457133
0.04452994
0.04448206
0.04442874
0.04437065
0.04430852
0.04424284
0.04417400
0.04410217
0.04402737
0.04394940
0.04386793
0.04378246
0.04369237
0.04359692
0.04349529
0.04338663
0.04327001
0.04314450
0.04300919
0.04286315
0.04270550
0.04253541
0.04235213
0.04215499
0.04194344
0.04171708
0.04147569
0.04121926
0.04094799
0.04066237
0.04036316
0.04005144
0.03972858
0.03939630
0.03905661
0.03871185
0.03836462
0.03801779
0.03767445
0.03733787
0.03701145
0.03669867
0.03640305
0.03612808
0.03587713
0.03565349
0.03546020
0.03530008
0.03517563
0.03508901
0.03504197
0.03503582
0.03507139
0.03514902
0.03526849
0.03542901
0.03562925
0.03586725
0.03614050
0.03644590
0.03677979
0.03713798
0.03751576
0.03790803
0.03830924
0.03871358
0.03911497
0.03950722
0.03988412
0.04023952
0.04056750
0.04086248
0.04111932
0.04133348
0.04150115
0.04161930
0.04168583
0.04169959
0.04166050
0.04156946
0.04142846
0.04124043
0.04100922
0.04073948
0.04043652
0.04010617
0.03975458
0.03938805
0.03901287
0.03863512
0.03826052
0.03789429
0.03754105
0.03720471
0.03688844
0.03659465
0.03632499
0.03608038
0.03586108
0.03566676
0.03549658
0.03534929
0.03522333
0.03511691
0.03502812
0.03495501
0.03489564
0.03484821
0.03481103
0.03478268
0.03476191
0.03474796
0.03473997
0.03473844
0.03474211
0.03475475
0.03477069
0.03480595
0.03483098
0.03491587
0.00000000
0.00000000
0.04472024
0.04473748
0.04473140
0.04472126
0.04469936
0.04467018
0.04463285
0.04458895
0.04453903
0.04448405
0.04442472
0.04436169
0.04429545
0.04422629
0.04415434
0.04407950
0.04400149
0.04391983
0.04383389
0.04374290
0.04364595
0.04354207
0.04343020
0.04330923
0.04317805
0.04303554
0.04288058
0.04271212
0.04252915
0.04233075
0.04211614
0.04188466
0.04163586
0.04136948
0.04108553
0.04078429
0.04046635
0.04013265
0.03978443
0.03942332
0.03905129
0.03867065
0.03828400
0.03789428
0.03750466
0.03711850
0.03673937
0.03637092
0.03601689
0.03568100
0.03536694
0.03507829
0.03481844
0.03459061
0.03439773
0.03424241
0.03412691
0.03405308
0.03402233
0.03403560
0.03409330
0.03419534
0.03434103
0.03452915
0.03475788
0.03502483
0.03532700
0.03566088
0.03602237
0.03640689
0.03680939
0.03722441
0.03764615
0.03806853
0.03848530
0.03889014
0.03927676
0.03963901
0.03997103
0.04026736
0.04052308
0.04073391
0.04089637
0.04100782
0.04106662
0.04107212
0.04102475
0.04092596
0.04077827
0.04058515
0.04035092
0.04008066
0.03978006
0.03945519
0.03911240
0.03875806
0.03839842
0.03803943
0.03768657
0.03734475
0.03701818
0.03671036
0.03642397
0.03616093
0.03592241
0.03570886
0.03552012
0.03535547
0.03521372
0.03509335
0.03499259
0.03490947
0.03484200
0.03478818
0.03474609
0.03471396
0.03469028
0.03467371
0.03466341
0.03465845
0.03465924
0.03466455
0.03467799
0.03469415
0.03472835
0.03475251
0.03483303
0.00000000
0.00000000
0.04481895
0.04482709
0.04481714
0.04480155
0.04477580
0.04474279
0.04470235
0.04465568
0.04460346
0.04454654
0.04448561
0.04442127
0.04435394
0.04428384
0.04421099
0.04413518
0.04405600
0.04397283
0.04388489
0.04379121
0.04369071
0.04358222
0.04346447
0.04333615
0.04319592
0.04304245
0.04287443
0.04269060
0.04248978
0.04227093
0.04203312
0.04177566
0.04149805
0.04120006
0.04088177
0.04054360
0.04018631
0.03981104
0.03941931
0.03901303
0.03859447
0.03816626
0.03773136
0.03729299
0.03685465
0.03642002
0.03599293
0.03557728
0.03517706
0.03479619
0.03443853
0.03410784
0.03380766
0.03354132
0.03331187
0.03312204
0.03297418
0.03287025
0.03281177
0.03279977
0.03283479
0.03291685
0.03304541
0.03321938
0.03343708
0.03369628
0.03399415
0.03432732
0.03469187
0.03508335
0.03549683
0.03592696
0.03636800
0.03681391
0.03725843
0.03769516
0.03811767
0.03851961
0.03889485
0.03923760
0.03954250
0.03980481
0.04002050
0.04018637
0.04030014
0.04036054
0.04036734
0.04032141
0.04022467
0.04008008
0.03989152
0.03966371
0.03940207
0.03911254
0.03880137
0.03847499
0.03813978
0.03780189
0.03746706
0.03714052
0.03682682
0.03652981
0.03625252
0.03599721
0.03576537
0.03555772
0.03537432
0.03521465
0.03507768
0.03496199
0.03486585
0.03478733
0.03472442
0.03467508
0.03463734
0.03460935
0.03458953
0.03457643
0.03456913
0.03456663
0.03456924
0.03457574
0.03458948
0.03460540
0.03463780
0.03466058
0.03473520
0.00000000
0.00000000
0.04492861
0.04492628
0.04491202
0.04489038
0.04486043