# vtk DataFile Version 3.0
particle point data
ASCII
DATASET STRUCTURED_GRID
DIMENSIONS 130 130 2
POINTS 33800 double
0.00000000 0.00000000 0.00000000
0.00787402 0.00000000 0.00000000
0.01574803 0.00000000 0.00000000
0.02362205 0.00000000 0.00000000
0.03149606 0.00000000 0.00000000
0.03937008 0.00000000 0.00000000
0.04724409 0.00000000 0.00000000
0.05511811 0.00000000 0.00000000
0.06299213 0.00000000 0.00000000
0.07086614 0.00000000 0.00000000
0.07874016 0.00000000 0.00000000
0.08661417 0.00000000 0.00000000
0.09448819 0.00000000 0.00000000
0.10236220 0.00000000 0.00000000
0.11023622 0.00000000 0.00000000
0.11811024 0.00000000 0.00000000
0.12598425 0.00000000 0.00000000
0.13385827 0.00000000 0.00000000
0.14173228 0.00000000 0.00000000
0.14960630 0.00000000 0.00000000
0.15748031 0.00000000 0.00000000
0.16535433 0.00000000 0.00000000
0.17322835 0.00000000 0.00000000
0.18110236 0.00000000 0.00000000
0.18897638 0.00000000 0.00000000
0.19685039 0.00000000 0.00000000
0.20472441 0.00000000 0.00000000
0.21259843 0.00000000 0.00000000
0.22047244 0.00000000 0.00000000
0.22834646 0.00000000 0.00000000
0.23622047 0.00000000 0.00000000
0.24409449 0.00000000 0.00000000
0.25196850 0.00000000 0.00000000
0.25984252 0.00000000 0.00000000
0.26771654 0.00000000 0.00000000
0.27559055 0.00000000 0.00000000
0.28346457 0.00000000 0.00000000
0.29133858 0.00000000 0.00000000
0.29921260 0.00000000 0.00000000
0.30708661 0.00000000 0.00000000
0.31496063 0.00000000 0.00000000
0.32283465 0.00000000 0.00000000
0.33070866 0.00000000 0.00000000
0.33858268 0.00000000 0.00000000
0.34645669 0.00000000 0.00000000
0.35433071 0.00000000 0.00000000
0.36220472 0.00000000 0.00000000
0.37007874 0.00000000 0.00000000
0.37795276 0.00000000 0.00000000
0.38582677 0.00000000 0.00000000
0.39370079 0.00000000 0.00000000
0.40157480 0.00000000 0.00000000
0.40944882 0.00000000 0.00000000
0.41732283 0.00000000 0.00000000
0.42519685 0.00000000 0.00000000
0.43307087 0.00000000 0.00000000
0.44094488 0.00000000 0.00000000
0.44881890 0.00000000 0.00000000
0.45669291 0.00000000 0.00000000
0.46456693 0.00000000 0.00000000
0.47244094 0.00000000 0.00000000
0.48031496 0.00000000 0.00000000
0.48818898 0.00000000 0.00000000
0.49606299 0.00000000 0.00000000
0.50393701 0.00000000 0.00000000
0.51181102 0.00000000 0.00000000
0.51968504 0.00000000 0.00000000
0.52755906 0.00000000 0.00000000
0.53543307 0.00000000 0.00000000
0.54330709 0.00000000 0.00000000
0.55118110 0.00000000 0.00000000
0.55905512 0.00000000 0.00000000
0.56692913 0.00000000 0.00000000
0.57480315 0.00000000 0.00000000
0.58267717 0.00000000 0.00000000
0.59055118 0.00000000 0.00000000
0.59842520 0.00000000 0.00000000
0.60629921 0.00000000 0.00000000
0.61417323 0.00000000 0.00000000
0.62204724 0.00000000 0.00000000
0.62992126 0.00000000 0.00000000
0.63779528 0.00000000 0.00000000
0.64566929 0.00000000 0.00000000
0.65354331 0.00000000 0.00000000
0.66141732 0.00000000 0.00000000
0.66929134 0.00000000 0.00000000
0.67716535 0.00000000 0.00000000
0.68503937 0.00000000 0.00000000
0.69291339 0.00000000 0.00000000
0.70078740 0.00000000 0.00000000
0.70866142 0.00000000 0.00000000
0.71653543 0.00000000 0.00000000
0.72440945 0.00000000 0.00000000
0.73228346 0.00000000 0.00000000
0.74015748 0.00000000 0.00000000
0.74803150 0.00000000 0.00000000
0.75590551 0.00000000 0.00000000
0.76377953 0.00000000 0.00000000
0.77165354 0.00000000 0.00000000
0.77952756 0.00000000 0.00000000
0.78740157 0.00000000 0.00000000
0.79527559 0.00000000 0.00000000
0.80314961 0.00000000 0.00000000
0.81102362 0.00000000 0.00000000
0.81889764 0.00000000 0.00000000
0.82677165 0.00000000 0.00000000
0.83464567 0.00000000 0.00000000
0.84251969 0.00000000 0.00000000
0.85039370 0.00000000 0.00000000
0.85826772 0.00000000 0.00000000
0.86614173 0.00000000 0.00000000
0.87401575 0.00000000 0.00000000
0.88188976 0.00000000 0.00000000
0.88976378 0.00000000 0.00000000
0.89763780 0.00000000 0.00000000
0.90551181 0.00000000 0.00000000
0.91338583 0.00000000 0.00000000
0.92125984 0.00000000 0.00000000
0.92913386 0.00000000 0.00000000
0.93700787 0.00000000 0.00000000
0.94488189 0.00000000 0.00000000
0.95275591 0.00000000 0.00000000
0.96062992 0.00000000 0.00000000
0.96850394 0.00000000 0.00000000
0.97637795 0.00000000 0.00000000
0.98425197 0.00000000 0.00000000
0.99212598 0.00000000 0.00000000
1.00000000 0.00000000 0.00000000
1.00787402 0.00000000 0.00000000
1.01574803 0.00000000 0.00000000
0.00000000 0.00787402 0.00000000
0.00787402 0.00787402 0.00000000
0.01574803 0.00787402 0.00000000
0.02362205 0.00787402 0.00000000
0.03149606 0.00787402 0.00000000
0.03937008 0.00787402 0.00000000
0.04724409 0.00787402 0.00000000
0.05511811 0.00787402 0.00000000
0.06299213 0.00787402 0.00000000
0.07086614 0.00787402 0.00000000
0.07874016 0.00787402 0.00000000
0.08661417 0.00787402 0.00000000
0.09448819 0.00787402 0.00000000
0.10236220 0.00787402 0.00000000
0.11023622 0.00787402 0.00000000
0.11811024 0.00787402 0.00000000
0.12598425 0.00787402 0.00000000
0.13385827 0.00787402 0.00000000
0.14173228 0.00787402 0.00000000
0.14960630 0.00787402 0.00000000
0.15748031 0.00787402 0.00000000
0.16535433 0.00787402 0.00000000
0.17322835 0.00787402 0.00000000
0.18110236 0.00787402 0.00000000
0.18897638 0.00787402 0.00000000
0.19685039 0.00787402 0.00000000
0.20472441 0.00787402 0.00000000
0.21259843 0.00787402 0.00000000
0.22047244 0.00787402 0.00000000
0.22834646 0.00787402 0.00000000
0.23622047 0.00787402 0.00000000
0.24409449 0.00787402 0.00000000
0.25196850 0.00787402 0.00000000
0.25984252 0.00787402 0.00000000
0.26771654 0.00787402 0.00000000
0.27559055 0.00787402 0.00000000
0.28346457 0.00787402 0.00000000
0.29133858 0.00787402 0.00000000
0.29921260 0.00787402 0.00000000
0.30708661 0.00787402 0.00000000
0.31496063 0.00787402 0.00000000
0.32283465 0.00787402 0.00000000
0.33070866 0.00787402 0.00000000
0.33858268 0.00787402 0.00000000
0.34645669 0.00787402 0.00000000
0.35433071 0.00787402 0.00000000
0.36220472 0.00787402 0.00000000
0.37007874 0.00787402 0.00000000
0.37795276 0.00787402 0.00000000
0.38582677 0.00787402 0.00000000
0.39370079 0.00787402 0.00000000
0.40157480 0.00787402 0.00000000
0.40944882 0.00787402 0.00000000
0.41732283 0.00787402 0.00000000
0.42519685 0.00787402 0.00000000
0.43307087 0.00787402 0.00000000
0.44094488 0.00787402 0.00000000
0.44881890 0.00787402 0.00000000
0.45669291 0.00787402 0.00000000
0.46456693 0.00787402 0.00000000
0.47244094 0.00787402 0.00000000
0.48031496 0.00787402 0.00000000
0.48818898 0.00787402 0.00000000
0.49606299 0.00787402 0.00000000
0.50393701 0.00787402 0.00000000
0.51181102 0.00787402 0.00000000
0.51968504 0.00787402 0.00000000
0.52755906 0.00787402 0.00000000
0.53543307 0.00787402 0.00000000
0.54330709 0.00787402 0.00000000
0.55118110 0.00787402 0.00000000
0.55905512 0.00787402 0.00000000
0.56692913 0.00787402 0.00000000
0.57480315 0.00787402 0.00000000
0.58267717 0.00787402 0.00000000
0.59055118 0.00787402 0.00000000
0.59842520 0.00787402 0.00000000
0.60629921 0.00787402 0.00000000
0.61417323 0.00787402 0.00000000
0.62204724 0.00787402 0.00000000
0.62992126 0.00787402 0.00000000
0.63779528 0.00787402 0.00000000
0.64566929 0.00787402 0.00000000
0.65354331 0.00787402 0.00000000
0.66141732 0.00787402 0.00000000
0.66929134 0.00787402 0.00000000
0.67716535 0.00787402 0.00000000
0.68503937 0.00787402 0.00000000
0.69291339 0.00787402 0.00000000
0.70078740 0.00787402 0.00000000
0.70866142 0.00787402 0.00000000
0.71653543 0.00787402 0.00000000
0.72440945 0.00787402 0.00000000
0.73228346 0.00787402 0.00000000
0.74015748 0.00787402 0.00000000
0.74803150 0.00787402 0.00000000
0.75590551 0.00787402 0.00000000
0.76377953 0.00787402 0.00000000
0.77165354 0.00787402 0.00000000
0.77952756 0.00787402 0.00000000
0.78740157 0.00787402 0.00000000
0.79527559 0.00787402 0.00000000
0.80314961 0.00787402 0.00000000
0.81102362 0.00787402 0.00000000
0.81889764 0.00787402 0.00000000
0.82677165 0.00787402 0.00000000
0.83464567 0.00787402 0.00000000
0.84251969 0.00787402 0.00000000
0.85039370 0.00787402 0.00000000
0.85826772 0.00787402 0.00000000
0.86614173 0.00787402 0.00000000
0.87401575 0.00787402 0.00000000
0.88188976 0.00787402 0.00000000
0.88976378 0.00787402 0.00000000
0.89763780 0.00787402 0.00000000
0.90551181 0.00787402 0.00000000
0.91338583 0.00787402 0.00000000
0.92125984 0.00787402 0.00000000
0.92913386 0.00787402 0.00000000
0.93700787 0.00787402 0.00000000
0.94488189 0.00787402 0.00000000
0.95275591 0.00787402 0.00000000
0.96062992 0.00787402 0.00000000
0.96850394 0.00787402 0.00000000
0.97637795 0.00787402 0.00000000
0.98425197 0.00787402 0.00000000
0.99212598 0.00787402 0.00000000
1.00000000 0.00787402 0.00000000
1.00787402 0.00787402 0.00000000
1.01574803 0.00787402 0.00000000
0.00000000 0.01574803 0.00000000
0.00787402 0.01574803 0.00000000
0.01574803 0.01574803 0.00000000
0.02362205 0.01574803 0.00000000
0.03149606 0.01574803 0.00000000
0.03937008 0.01574803 0.00000000
0.04724409 0.01574803 0.00000000
0.05511811 0.01574803 0.00000000
0.06299213 0.01574803 0.00000000
0.07086614 0.01574803 0.00000000
0.07874016 0.01574803 0.00000000
0.08661417 0.01574803 0.00000000
0.09448819 0.01574803 0.00000000
0.10236220 0.01574803 0.00000000
0.11023622 0.01574803 0.00000000
0.11811024 0.01574803 0.00000000
0.12598425 0.01574803 0.00000000
0.13385827 0.01574803 0.00000000
0.14173228 0.01574803 0.00000000
0.14960630 0.01574803 0.00000000
0.15748031 0.01574803 0.00000000
0.16535433 0.01574803 0.00000000
0.17322835 0.01574803 0.00000000
0.18110236 0.01574803 0.00000000
0.18897638 0.01574803 0.00000000
0.19685039 0.01574803 0.00000000
0.20472441 0.01574803 0.00000000
0.21259843 0.01574803 0.00000000
0.22047244 0.01574803 0.00000000
0.22834646 0.01574803 0.00000000
0.23622047 0.01574803 0.00000000
0.24409449 0.01574803 0.00000000
0.25196850 0.01574803 0.00000000
0.25984252 0.01574803 0.00000000
0.26771654 0.01574803 0.00000000
0.27559055 0.01574803 0.00000000
0.28346457 0.01574803 0.00000000
0.29133858 0.01574803 0.00000000
0.29921260 0.01574803 0.00000000
[...]
CELL_DATA 16641
 SCALARS pressure double 1
 LOOKUP_TABLE default
0.00000000
0.00000000
0.00000000
0.00000000
0.00000000
0.00000000
0.00000000
0.00000000
0.00000000
0.00000000
0.00000000
0.00000000
0.00000000
0.00000000
0.00000000
0.00000000
0.00000000
0.00000000
0.00000000
0.00000000
0.00000000
0.00000000
0.00000000
0.00000000
0.00000000
0.00000000
0.00000000
0.00000000
0.00000000
0.00000000
0.00000000
0.00000000
0.00000000
0.00000000
0.00000000
0.00000000
0.00000000
0.00000000
0.00000000
0.00000000
0.00000000
0.00000000
0.00000000
0.00000000
0.00000000
0.00000000
0.00000000
0.00000000
0.00000000
0.00000000
0.00000000
0.00000000
0.00000000
0.00000000
0.00000000
0.00000000
0.00000000
0.00000000
0.00000000
0.00000000
0.00000000
0.00000000
0.00000000
0.00000000
0.00000000
0.00000000
0.00000000
0.00000000
0.00000000
0.00000000
0.00000000
0.00000000
0.00000000
0.00000000
0.00000000
0.00000000
0.00000000
0.00000000
0.00000000
0.00000000
0.00000000
0.00000000
0.00000000
0.00000000
0.00000000
0.00000000
0.00000000
0.00000000
0.00000000
0.00000000
0.00000000
0.00000000
0.00000000
0.00000000
0.00000000
0.00000000
0.00000000
0.00000000
0.00000000
0.00000000
0.00000000
0.00000000
0.00000000
0.00000000
0.00000000
0.00000000
0.00000000
0.00000000
0.00000000
0.00000000
0.00000000
0.00000000
0.00000000
0.00000000
0.00000000
0.00000000
0.00000000
0.00000000
0.00000000
0.00000000
0.00000000
0.00000000
0.00000000
0.00000000
0.00000000
0.00000000
0.00000000
0.00000000
0.00000000
0.00000000
0.02333800
0.02333807
0.02333312
0.02332538
0.02331511
0.02330336
0.02329076
0.02327787
0.02326509
0.02325272
0.02324092
0.02322981
0.02321944
0.02320983
0.02320095
0.02319279
0.02318531
0.02317846
0.02317221
0.02316653
0.02316140
0.02315682
0.02315278
0.02314929
0.02314640
0.02314411
0.02314249
0.02314159
0.02314146
0.02314217
0.02314379
0.02314640
0.02315009
0.02315492
0.02316100
0.02316840
0.02317721
0.02318751
0.02319940
0.02321294
0.02322823
0.02324532
0.02326430
0.02328521
0.02330813
0.02333308
0.02336011
0.02338924
0.02342048
0.02345382
0.02348925
0.02352671
0.02356617
0.02360752
0.02365068
0.02369552
0.02374188
0.02378960
0.02383847
0.02388826
0.02393874
0.02398961
0.02404059
0.02409134
0.02414153
0.02419079
0.02423875
0.02428502
0.02432921
0.02437092
0.02440976
0.02444534
0.02447728
0.02450524
0.02452886
0.02454786
0.02456195
0.02457091
0.02457454
0.02457271
0.02456532
0.02455234
0.02453378
0.02450971
0.02448025
0.02444559
0.02440595
0.02436161
0.02431288
0.02426013
0.02420376
0.02414417
0.02408182
0.02401717
0.02395068
0.02388283
0.02381408
0.02374489
0.02367572
0.02360699
0.02353912
0.02347247
0.02340742
0.02334429
0.02328338
0.02322496
0.02316927
0.02311652
0.02306691
0.02302059
0.02297773
0.02293843
0.02290283
0.02287101
0.02284306
0.02281906
0.02279907
0.02278315
0.02277131
0.02276351
0.02275970
0.02275960
0.02276302
0.02276891
0.02277688
0.02278406
0.02278962
0.00000000
0.00000000
0.02333790
0.02333796
0.02333385
0.02332772
0.02331957
0.02331011
0.02329982
0.02328910
0.02327828
0.02326762
0.02325729
0.02324741
0.02323806
0.02322928
0.02322108
0.02321346
0.02320641
0.02319992
0.02319396
0.02318853
0.02318362
0.02317923
0.02317538
0.02317207
0.02316934
0.02316721
0.02316575
0.02316499
0.02316499
0.02316582
0.02316755
0.02317024
0.02317398
0.02317883
0.02318488
0.02319222
0.02320091
0.02321105
0.02322270
0.02323595
0.02325087
0.02326753
0.02328599
0.02330630
0.02332851
0.02335268
0.02337881
0.02340694
0.02343707
0.02346919
0.02350327
0.02353928
0.02357714
0.02361679
0.02365811
0.02370099
0.02374527
0.02379080
0.02383736
0.02388475
0.02393271
0.02398100
0.02402931
0.02407734
0.02412477
0.02417125
0.02421643
0.02425994
0.02430141
0.02434047
0.02437674
0.02440987
0.02443950
0.02446531
0.02448697
0.02450422
0.02451679
0.02452447
0.02452710
0.02452454
0.02451671
0.02450359
0.02448519
0.02446158
0.02443289
0.02439928
0.02436098
0.02431824
0.02427138
0.02422073
0.02416666
0.02410957
0.02404988
0.02398802
0.02392443
0.02385956
0.02379385
0.02372774
0.02366164
0.02359596
0.02353108
0.02346738
0.02340518
0.02334481
0.02328654
0.02323063
0.02317731
0.02312679
0.02307925
0.02303483
0.02299369
0.02295593
0.02292165
0.02289094
0.02286386
0.02284046
0.02282078
0.02280480
0.02279251
0.02278381
0.02277861
0.02277653
0.02277746
0.02278033
0.02278534
0.02278960
0.02279517
0.00000000
0.00000000
0.02334288
0.02334202
0.02333785
0.02333172
0.02332394
0.02331497
0.02330529
0.02329520
0.02328504
0.02327500
0.02326525
0.02325590
0.02324702
0.02323865
0.02323080
0.02322348
0.02321668
0.02321039
0.02320461
0.02319932
0.02319452
0.02319022
0.02318643
0.02318318
0.02318048
0.02317838
0.02317692
0.02317616
0.02317614
0.02317694
0.02317861
0.02318123
0.02318487
0.02318962
0.02319554
0.02320272
0.02321124
0.02322117
0.02323259
0.02324557
0.02326020
0.02327653
0.02329463
0.02331454
0.02333633
0.02336003
0.02338567
0.02341326
0.02344281
0.02347432
0.02350775
0.02354306
0.02358021
0.02361909
0.02365962
0.02370167
0.02374510
0.02378974
0.02383540
0.02388186
0.02392888
0.02397620
0.02402355
0.02407061
0.02411707
0.02416258
0.02420681
0.02424939
0.02428995
0.02432813
0.02436357
0.02439590
0.02442479
0.02444990
0.02447093
0.02448761
0.02449968
0.02450694
0.02450922
0.02450640
0.02449839
0.02448517
0.02446677
0.02444324
0.02441471
0.02438136
0.02434340
0.02430109
0.02425473
0.02420466
0.02415125
0.02409489
0.02403599
0.02397499
0.02391230
0.02384838
0.02378366
0.02371856
0.02365350
0.02358887
0.02352506
0.02346242
0.02340128
0.02334195
0.02328470
0.02322978
0.02317742
0.02312780
0.02308112
0.02303751
0.02299710
0.02296000
0.02292630
0.02289608
0.02286939
0.02284627
0.02282674
0.02281079
0.02279842
0.02278948
0.02278395
0.02278143
0.02278197
0.02278440
0.02278959
0.02279387
0.02280239
0.00000000
0.00000000
0.02335078
0.02334811
0.02334379
0.02333754
0.02333022
0.02332188
0.02331302
0.02330383
0.02329457
0.02328540
0.02327646
0.02326784
0.02325961
0.02325181
0.02324445
0.02323755
0.02323110
0.02322510
0.02321956
0.02321446
0.02320981
0.02320564
0.02320194
0.02319875
0.02319610
0.02319402
0.02319256
0.02319178
0.02319172
0.02319245
0.02319403
0.02319654
0.02320004
0.02320461
0.02321034
0.02321728
0.02322552
0.02323514
0.02324622
0.02325882
0.02327301
0.02328886
0.02330643
0.02332578
0.02334695
0.02336998
0.02339489
0.02342171
0.02345044
0.02348107
0.02351358
0.02354792
0.02358403
0.02362184
0.02366126
0.02370215
0.02374438
0.02378778
0.02383216
0.02387732
0.02392303
0.02396902
0.02401502
0.02406073
0.02410585
0.02415003
0.02419295
0.02423424
0.02427356
0.02431054
0.02434482
0.02437607
0.02440393
0.02442810
0.02444827
0.02446417
0.02447556
0.02448225
0.02448406
0.02448088
0.02447262
0.02445928
0.02444086
0.02441744
0.02438915
0.02435615
0.02431865
0.02427693
0.02423126
0.02418200
0.02412949
0.02407412
0.02401631
0.02395647
0.02389503
0.02383241
0.02376904
0.02370533
0.02364171
0.02357854
0.02351619
0.02345502
0.02339534
0.02333745
0.02328162
0.02322807
0.02317703
0.02312869
0.02308320
0.02304070
0.02300132
0.02296515
0.02293226
0.02290272
0.02287658
0.02285386
0.02283456
0.02281867
0.02280616
0.02279691
0.02279090
0.02278776
0.02278769
0.02278947
0.02279470
0.02279887
0.02281044
0.00000000
0.00000000
0.02336147
0.02335632
0.02335145
0.02334447
0.02333704
0.02332873
0.02332016
0.02331135
0.02330257
0.02329390
0.02328548
0.02327737
0.02326961
0.02326224
0.02325527
0.02324870
0.02324254
0.02323678
0.02323143
0.02322648
0.02322195
0.02321785
0.02321419
0.02321101
0.02320834
0.02320621
0.02320468
0.02320380
0.02320361
0.02320419
0.02320559
0.02320790
0.02321117
0.02321548
0.02322091
0.02322754
0.02323543
0.02324468
0.02325534
0.02326750
0.02328122
0.02329657
0.02331361
0.02333239
0.02335296
0.02337537
0.02339963
0.02342577
0.02345379
0.02348369
0.02351544
0.02354901
0.02358434
0.02362135
0.02365995
0.02370002
0.02374142
0.02378399
0.02382755
0.02387189
0.02391678
0.02396197
0.02400719
0.02405214
0.02409651
0.02413998
0.02418221
0.02422285
0.02426155
0.02429794
0.02433168
0.02436241
0.02438980
0.02441354
0.02443331
0.02444886
0.02445994
0.02446635
0.02446793
0.02446455
0.02445615
0.02444270
0.02442421
0.02440077
0.02437250
0.02433956
0.02430218
0.02426061
0.02421517
0.02416616
0.02411397
0.02405898
0.02400160
0.02394224
0.02388133
0.02381930
0.02375656
0.02369355
0.02363065
0.02356825
0.02350671
0.02344637
0.02338755
0.02333053
0.02327557
0.02322290
0.02317272
0.02312522
0.02308055
0.02303883
0.02300017
0.02296466
0.02293237
0.02290335
0.02287763
0.02285524
0.02283617
0.02282040
0.02280792
0.02279862
0.02279252
0.02278925
0.02278921
0.02279105
0.02279706
0.02280173
0.02281648
0.00000000
0.00000000
0.02337394
0.02336591
0.02336032
0.02335236
0.02334466
0.02333623
0.02332783
0.02331930
0.02331093
0.02330272
0.02329478
0.02328715
0.02327986
0.02327291
0.02326632
0.02326009
0.02325422
0.02324870
0.02324353
0.02323873
0.02323430
0.02323025
0.02322661
0.02322341
0.02322069
0.02321847
0.02321682
0.02321578
0.02321541
0.02321578
0.02321694
0.02321896
0.02322193
0.02322591
0.02323097
0.02323719
0.02324466
0.02325343
0.02326360
0.02327523
0.02328839
0.02330315
0.02331956
0.02333769
0.02335759
0.02337929
0.02340282
0.02342821
0.02345546
0.02348457
0.02351552
0.02354828
0.02358279
0.02361897
0.02365674
0.02369599
0.02373657
0.02377834
0.02382111
0.02386468
0.02390882
0.02395329
0.02399781
0.02404210
0.02408585
0.02412873
0.02417040
0.02421052
0.02424874
0.02428469
0.02431802
0.02434838
0.02437544
0.02439887
0.02441838
0.02443369
0.02444456
0.02445079
0.02445220
0.02444869
0.02444017
0.02442662
0.02440806
0.02438457
0.02435627
0.02432334
0.02428599
0.02424448
0.02419913
0.02415026
0.02409824
0.02404347
0.02398635
0.02392731
0.02386677
0.02380516
0.02374290
0.02368041
0.02361809
0.02355632
0.02349545
0.02343582
0.02337775
0.02332150
0.02326733
0.02321546
0.02316609
0.02311939
0.02307549
0.02303452
0.02299657
0.02296172
0.02293002
0.02290152
0.02287624
0.02285419
0.02283538
0.02281977
0.02280737
0.02279807
0.02279195
0.02278864
0.02278870
0.02279067
0.02279744
0.02280261
0.02282009
0.00000000
0.00000000
0.02338754
0.02337639
0.02336990
0.02336070
0.02335249
0.02334368
0.02333520
0.02332675
0.02331858
0.02331066
0.02330307
0.02329580
0.02328887
0.02328227
0.02327601
0.02327006
0.02326443
0.02325911
0.02325410
0.02324940
0.02324503
0.02324100
0.02323734
0.02323407
0.02323123
0.02322887
0.02322703
0.02322577
0.02322515
0.02322522
0.02322606
0.02322773
0.02323031
0.02323387
0.02323848
0.02324422
0.02325117
0.02325940
0.02326899
0.02328002
0.02329255
0.02330665
0.02332239
0.02333982
0.02335900
0.02337997
0.02340276
0.02342739
0.02345388
0.02348223
0.02351242
0.02354443
0.02357819
0.02361365
0.02365071
0.02368927
0.02372920
0.02377034
0.02381252
0.02385554
0.02389917
0.02394318
0.02398728
0.02403120
0.02407462
0.02411722
0.02415866
0.02419860
0.02423667
0.02427251
0.02430576
0.02433608
0.02436311
0.02438654
0.02440605
0.02442137
0.02443225
0.02443848
0.02443989
0.02443636
0.02442781
0.02441421
0.02439558
0.02437200
0.02434359
0.02431054
0.02427305
0.02423141
0.02418592
0.02413692
0.02408478
0.02402991
0.02397272
0.02391364
0.02385310
0.02379153
0.02372937
0.02366704
0.02360493
0.02354342
0.02348287
0.02342362
0.02336597
0.02331019
0.02325654
0.02320521
0.02315641
0.02311029
0.02306698
0.02302659
0.02298920
0.02295488
0.02292368
0.02289562
0.02287073
0.02284901
0.02283046
0.02281506
0.02280281
0.02279362
0.02278762
0.02278444
0.02278478
0.02278707
0.02279469
0.02280043
0.02282021
0.00000000
0.00000000
0.02340163
0.02338723
0.02337975
0.02336917
0.02336032
0.02335100
0.02334233
0.02333383
0.02332578
0.02331807
0.02331074
0.02330377
0.02329715
0.02329085
0.02328487
0.02327917
0.02327375
0.02326860
0.02326370
0.02325908
0.02325473
0.02325068
0.02324694
0.02324356
0.02324057
0.02323800
0.02323592
0.02323438
0.02323344
0.02323315
0.02323359
0.02323483
0.02323694
0.02323999
0.02324406
0.02324923
0.02325558
0.02326319
0.02327212
0.02328246
0.02329428
0.02330765
0.02332264
0.02333930
0.02335770
0.02337787
0.02339986
0.02342369
0.02344939
0.02347694
0.02350636
0.02353760
0.02357062
0.02360537
0.02364176
0.02367968
0.02371901
0.02375960
0.02380129
0.02384386
0.02388711
0.02393079
0.02397463
0.02401834
0.02406162
0.02410413
0.02414555
0.02418550
0.02422364
0.02425959
0.02429299
0.02432347
0.02435070
0.02437432
0.02439403
0.02440955
0.02442061
0.02442700
0.02442854
0.02442510
0.02441660
0.02440301
0.02438434
0.02436068
0.02433214
0.02429892
0.02426123
0.02421935
0.02417359
0.02412431
0.02407189
0.02401673
0.02395927
0.02389993
0.02383917
0.02377743
0.02371514
0.02365272
0.02359058
0.02352911
0.02346867
0.02340959
0.02335217
0.02329668
0.02324336
0.02319242
0.02314404
0.02309837
0.02305554
0.02301562
0.02297871
0.02294486
0.02291409
0.02288644
0.02286192
0.02284051
0.02282223
0.02280705
0.02279499
0.02278596
0.02278013
0.02277713
0.02277777
0.02278039
0.02278876
0.02279503
0.02281662
0.00000000
0.00000000
0.02341564
0.02339794
0.02338939
0.02337733
0.02336773
0.02335778
0.02334880
0.02334015
0.02333210
0.02332449
0.02331734
0.02331059
0.02330421
0.02329816
0.02329239
0.02328689
0.02328164
0.02327660
0.02327179
0.02326719
0.02326282
0.02325869
0.02325484
0.02325128
0.02324807
0.02324525
0.02324286
0.02324097
0.02323963
0.02323891
0.02323887
0.02323960
0.02324116
0.02324362
0.02324707
0.02325159
0.02325725
0.02326414
0.02327233
0.02328191
0.02329294
0.02330550
0.02331966
0.02333549
0.02335304
0.02337236
0.02339350
0.02341649
0.02344136
0.02346811
0.02349673
0.02352721
0.02355952
0.02359358
0.02362933
0.02366668
0.02370549
0.02374562
0.02378692
0.02382917
0.02387218
0.02391569
0.02395944
0.02400314
0.02404647
0.02408912
0.02413073
0.02417094
0.02420939
0.02424569
0.02427949
0.02431039
0.02433805
0.02436211
0.02438226
0.02439819
0.02440963
0.02441636
0.02441820
0.02441499
0.02440666
0.02439317
0.02437453
0.02435081
0.02432215
0.02428873
0.02425077
0.02420856
0.02416243
0.02411272
0.02405984
0.02400421
0.02394626
0.02388645
0.02382523
0.02376306
0.02370038
0.02363762
0.02357520
0.02351352
0.02345293
0.02339377
0.02333634
0.02328092
0.02322773
0.02317699
0.02312886
0.02308348
0.02304096
0.02300140
0.02296486
0.02293137
0.02290097
0.02287366
0.02284946
0.02282835
0.02281033
0.02279537
0.02278352
0.02277468
0.02276906
0.02276628
0.02276726
0.02277022
0.02277925
0.02278597
0.02280898
0.00000000
0.00000000
0.02342906
0.02340806
0.02339841
0.02338481
0.02337440
0.02336375
0.02335438
0.02334550
0.02333739
0.02332981
0.02332278
0.02331619
0.02330999
0.02330411
0.02329852
0.02329317
0.02328803
0.02328307
0.02327828
0.02327366
0.02326922
0.02326497
0.02326094
0.02325716
0.02325368
0.02325053
0.02324776
0.02324545
0.02324365
0.02324242
0.02324183
0.02324197
0.02324289
0.02324469
0.02324743
0.02325121
0.02325610
0.02326218
0.02326954
0.02327826
0.02328842
0.02330008
0.02331334
0.02332825
0.02334487
0.02336328
0.02338350
0.02340559
0.02342957
0.02345546
0.02348326
0.02351296
0.02354452
0.02357790
0.02361302
0.02364980
0.02368812
0.02372785
0.02376881
0.02381083
0.02385368
0.02389713
0.02394091
0.02398473
0.02402828
0.02407123
0.02411321
0.02415387
0.02419284
0.02422971
0.02426411
0.02429566
0.02432398
0.02434870
0.02436950
0.02438606
0.02439809
0.02440537
0.02440768
0.02440487
0.02439686
0.02438358
0.02436507
0.02434138
0.02431264
0.02427904
0.02424081
0.02419824
0.02415166
0.02410145
0.02404801
0.02399177
0.02393320
0.02387274
0.02381088
0.02374808
0.02368481
0.02362151
0.02355861
0.02349650
0.02343555
0.02337612
0.02331849
0.02326294
0.02320971
0.02315900
0.02311096
0.02306573
0.02302342
0.02298409
0.02294782
0.02291461
0.02288450
0.02285748
0.02283355
0.02281270
0.02279492
0.02278019
0.02276854
0.02275990
0.02275449
0.02275193
0.02275321
0.02275648
0.02276605
0.02277315
0.02279723
0.00000000
0.00000000
0.02344142
0.02341715
0.02340638
0.02339121
0.02337995
0.02336854
0.02335874
0.02334956
0.02334132
0.02333372
0.02332674
0.02332024
0.02331417
0.02330842
0.02330295
0.02329769
0.02329261
0.02328767
0.02328285
0.02327816
0.02327359
0.02326917
0.02326490
0.02326084
0.02325702
0.02325348
0.02325027
0.02324747
0.02324513
0.02324331
0.02324210
0.02324156
0.02324177
0.02324281
0.02324477
0.02324771
0.02325174
0.02325693
0.02326337
0.02327114
0.02328033
0.02329101
0.02330327
0.02331718
0.02333280
0.02335020
0.02336943
0.02339054
0.02341357
0.02343854
0.02346546
0.02349432
0.02352510
0.02355776
0.02359223
0.02362845
0.02366629
0.02370562
0.02374629
0.02378812
0.02383089
0.02387436
0.02391827
0.02396233
0.02400623
0.02404962
0.02409215
0.02413344
0.02417310
0.02421075
0.02424598
0.02427840
0.02430761
0.02433323
0.02435492
0.02437235
0.02438520
0.02439324
0.02439624
0.02439404
0.02438652
0.02437364
0.02435539
0.02433185
0.02430313
0.02426942
0.02423096
0.02418805
0.02414101
0.02409025
0.02403618
0.02397925
0.02391992
0.02385869
0.02379604
0.02373245
0.02366841
0.02360437
0.02354078
0.02347805
0.02341655
0.02335664
0.02329863
0.02324277
0.02318932
0.02313847
0.02309036
0.02304514
0.02300290
0.02296369
0.02292757
0.02289456
0.02286466
0.02283786
0.02281415
0.02279352
0.02277594
0.02276141
0.02274995
0.02274149
0.02273628
0.02273393
0.02273547
0.02273900
0.02274901
0.02275641
0.02278126
0.00000000
0.00000000
0.02345230
0.02342478
0.02341289
0.02339615
0.02338401
0.02337182
0.02336154
0.02335204
0.02334363
0.02333595
0.02332897
0.02332252
0.02331651
0.02331084
0.02330544
0.02330022
0.02329514
0.02329017
0.02328528
0.02328045
0.02327570
0.02327104
0.02326648
0.02326207
0.02325785
0.02325385
0.02325014
0.02324678
0.02324382
0.02324135
0.02323943
0.02323813
0.02323754
0.02323774
0.02323882
0.02324085
0.02324392
0.02324812
0.02325355
0.02326028
0.02326840
0.02327800
0.02328916
0.02330196
0.02331647
0.02333277
0.02335091
0.02337095
0.02339293
0.02341688
0.02344283
0.02347077
0.02350069
0.02353257
0.02356634
0.02360194
0.02363926
0.02367817
0.02371854
0.02376018
0.02380288
0.02384641
0.02389051
0.02393488
0.02397921
0.02402315
0.02406635
0.02410842
0.02414896
0.02418756
0.02422382
0.02425732
0.02428765
0.02431442
0.02433725
0.02435579
0.02436973
0.02437879
0.02438273
0.02438137
0.02437459
0.02436232
0.02434455
0.02432133
0.02429279
0.02425911
0.02422053
0.02417735
0.02412992
0.02407863
0.02402392
0.02396626
0.02390612
0.02384403
0.02378048
0.02371597
0.02365102
0.02358610
0.02352166
0.02345814
0.02339592
0.02333536
0.02327678
0.02322045
0.02316661
0.02311546
0.02306715
0.02302179
0.02297949
0.02294029
0.02290422
0.02287130
0.02284153
0.02281488
0.02279133
0.02277086
0.02275345
0.02273908
0.02272778
0.02271948
0.02271443
0.02271224
0.02271399
0.02271773
0.02272806
0.02273568
0.02276108
0.00000000
0.00000000
0.02346126
0.02343055
0.02341754
0.02339924
0.02338622
0.02337323
0.02336246
0.02335260
0.02334398
0.02333618
0.02332916
0.02332271
0.02331673
0.02331108
0.02330569
0.02330046
0.02329533
0.02329027
0.02328524
0.02328023
0.02327524
0.02327027
0.02326537
0.02326054
0.02325585
0.02325133
0.02324704
0.02324304
0.02323940
0.02323619
0.02323348
0.02323135
0.02322988
0.02322916
0.02322926
0.02323028
0.02323230
0.02323542
0.02323972
0.02324530
0.02325225
0.02326065
0.02327060
0.02328217
0.02329546
0.02331053
0.02332745
0.02334629
0.02336710
0.02338992
0.02341477
0.02344168
0.02347063
0.02350160
0.02353457
0.02356945
0.02360615
0.02364458
0.02368458
0.02372597
0.02376857
0.02381214
0.02385642
0.02390113
0.02394593
0.02399050
0.02403445
0.02407741
0.02411896
0.02415869
0.02419616
0.02423095
0.02426264
0.02429080
0.02431504
0.02433498
0.02435030
0.02436068
0.02436587
0.02436567
0.02435993
0.02434856
0.02433154
0.02430892
0.02428080
0.02424736
0.02420885
0.02416556
0.02411785
0.02406613
0.02401085
0.02395248
0.02389154
0.02382855
0.02376404
0.02369855
0.02363258
0.02356665
0.02350123
0.02343677
0.02337367
0.02331230
0.02325300
0.02319604
0.02314166
0.02309005
0.02304138
0.02299576
0.02295326
0.02291394
0.02287782
0.02284490
0.02281516
0.02278858
0.02276512
0.02274475
0.02272746
0.02271319
0.02270200
0.02269382
0.02268888
0.02268682
0.02268872
0.02269261
0.02270315
0.02271092
0.02273667
0.00000000
0.00000000
0.02346790
0.02343405
0.02341994
0.02340010
0.02338620