# vtk DataFile Version 3.0
particle point data
ASCII
DATASET STRUCTURED_GRID
DIMENSIONS 130 130 2
POINTS 33800 double
0.00000000 0.00000000 0.00000000
0.00787402 0.00000000 0.00000000
0.01574803 0.00000000 0.00000000
0.02362205 0.00000000 0.00000000
0.03149606 0.00000000 0.00000000
0.03937008 0.00000000 0.00000000
0.04724409 0.00000000 0.00000000
0.05511811 0.00000000 0.00000000
0.06299213 0.00000000 0.00000000
0.07086614 0.00000000 0.00000000
0.07874016 0.00000000 0.00000000
0.08661417 0.00000000 0.00000000
0.09448819 0.00000000 0.00000000
0.10236220 0.00000000 0.00000000
0.11023622 0.00000000 0.00000000
0.11811024 0.00000000 0.00000000
0.12598425 0.00000000 0.00000000
0.13385827 0.00000000 0.00000000
0.14173228 0.00000000 0.00000000
0.14960630 0.00000000 0.00000000
0.15748031 0.00000000 0.00000000
0.16535433 0.00000000 0.00000000
0.17322835 0.00000000 0.00000000
0.18110236 0.00000000 0.00000000
0.18897638 0.00000000 0.00000000
0.19685039 0.00000000 0.00000000
0.20472441 0.00000000 0.00000000
0.21259843 0.00000000 0.00000000
0.22047244 0.00000000 0.00000000
0.22834646 0.00000000 0.00000000
0.23622047 0.00000000 0.00000000
0.24409449 0.00000000 0.00000000
0.25196850 0.00000000 0.00000000
0.25984252 0.00000000 0.00000000
0.26771654 0.00000000 0.00000000
0.27559055 0.00000000 0.00000000
0.28346457 0.00000000 0.00000000
0.29133858 0.00000000 0.00000000
0.29921260 0.00000000 0.00000000
0.30708661 0.00000000 0.00000000
0.31496063 0.00000000 0.00000000
0.32283465 0.00000000 0.00000000
0.33070866 0.00000000 0.00000000
0.33858268 0.00000000 0.00000000
0.34645669 0.00000000 0.00000000
0.35433071 0.00000000 0.00000000
0.36220472 0.00000000 0.00000000
0.37007874 0.00000000 0.00000000
0.37795276 0.00000000 0.00000000
0.38582677 0.00000000 0.00000000
0.39370079 0.00000000 0.00000000
0.40157480 0.00000000 0.00000000
0.40944882 0.00000000 0.00000000
0.41732283 0.00000000 0.00000000
0.42519685 0.00000000 0.00000000
0.43307087 0.00000000 0.00000000
0.44094488 0.00000000 0.00000000
0.44881890 0.00000000 0.00000000
0.45669291 0.00000000 0.00000000
0.46456693 0.00000000 0.00000000
0.47244094 0.00000000 0.00000000
0.48031496 0.00000000 0.00000000
0.48818898 0.00000000 0.00000000
0.49606299 0.00000000 0.00000000
0.50393701 0.00000000 0.00000000
0.51181102 0.00000000 0.00000000
0.51968504 0.00000000 0.00000000
0.52755906 0.00000000 0.00000000
0.53543307 0.00000000 0.00000000
0.54330709 0.00000000 0.00000000
0.55118110 0.00000000 0.00000000
0.55905512 0.00000000 0.00000000
0.56692913 0.00000000 0.00000000
0.57480315 0.00000000 0.00000000
0.58267717 0.00000000 0.00000000
0.59055118 0.00000000 0.00000000
0.59842520 0.00000000 0.00000000
0.60629921 0.00000000 0.00000000
0.61417323 0.00000000 0.00000000
0.62204724 0.00000000 0.00000000
0.62992126 0.00000000 0.00000000
0.63779528 0.00000000 0.00000000
0.64566929 0.00000000 0.00000000
0.65354331 0.00000000 0.00000000
0.66141732 0.00000000 0.00000000
0.66929134 0.00000000 0.00000000
0.67716535 0.00000000 0.00000000
0.68503937 0.00000000 0.00000000
0.69291339 0.00000000 0.00000000
0.70078740 0.00000000 0.00000000
0.70866142 0.00000000 0.00000000
0.71653543 0.00000000 0.00000000
0.72440945 0.00000000 0.00000000
0.73228346 0.00000000 0.00000000
0.74015748 0.00000000 0.00000000
0.74803150 0.00000000 0.00000000
0.75590551 0.00000000 0.00000000
0.76377953 0.00000000 0.00000000
0.77165354 0.00000000 0.00000000
0.77952756 0.00000000 0.00000000
0.78740157 0.00000000 0.00000000
0.79527559 0.00000000 0.00000000
0.80314961 0.00000000 0.00000000
0.81102362 0.00000000 0.00000000
0.81889764 0.00000000 0.00000000
0.82677165 0.00000000 0.00000000
0.83464567 0.00000000 0.00000000
0.84251969 0.00000000 0.00000000
0.85039370 0.00000000 0.00000000
0.85826772 0.00000000 0.00000000
0.86614173 0.00000000 0.00000000
0.87401575 0.00000000 0.00000000
0.88188976 0.00000000 0.00000000
0.88976378 0.00000000 0.00000000
0.89763780 0.00000000 0.00000000
0.90551181 0.00000000 0.00000000
0.91338583 0.00000000 0.00000000
0.92125984 0.00000000 0.00000000
0.92913386 0.00000000 0.00000000
0.93700787 0.00000000 0.00000000
0.94488189 0.00000000 0.00000000
0.95275591 0.00000000 0.00000000
0.96062992 0.00000000 0.00000000
0.96850394 0.00000000 0.00000000
0.97637795 0.00000000 0.00000000
0.98425197 0.00000000 0.00000000
0.99212598 0.00000000 0.00000000
1.00000000 0.00000000 0.00000000
1.00787402 0.00000000 0.00000000
1.01574803 0.00000000 0.00000000
0.00000000 0.00787402 0.00000000
0.00787402 0.00787402 0.00000000
0.01574803 0.00787402 0.00000000
0.02362205 0.00787402 0.00000000
0.03149606 0.00787402 0.00000000
0.03937008 0.00787402 0.00000000
0.04724409 0.00787402 0.00000000
0.05511811 0.00787402 0.00000000
0.06299213 0.00787402 0.00000000
0.07086614 0.00787402 0.00000000
0.07874016 0.00787402 0.00000000
0.08661417 0.00787402 0.00000000
0.09448819 0.00787402 0.00000000
0.10236220 0.00787402 0.00000000
0.11023622 0.00787402 0.00000000
0.11811024 0.00787402 0.00000000
0.12598425 0.00787402 0.00000000
0.13385827 0.00787402 0.00000000
0.14173228 0.00787402 0.00000000
0.14960630 0.00787402 0.00000000
0.15748031 0.00787402 0.00000000
0.16535433 0.00787402 0.00000000
0.17322835 0.00787402 0.00000000
0.18110236 0.00787402 0.00000000
0.18897638 0.00787402 0.00000000
0.19685039 0.00787402 0.00000000
0.20472441 0.00787402 0.00000000
0.21259843 0.00787402 0.00000000
0.22047244 0.00787402 0.00000000
0.22834646 0.00787402 0.00000000
0.23622047 0.00787402 0.00000000
0.24409449 0.00787402 0.00000000
0.25196850 0.00787402 0.00000000
0.25984252 0.00787402 0.00000000
0.26771654 0.00787402 0.00000000
0.27559055 0.00787402 0.00000000
0.28346457 0.00787402 0.00000000
0.29133858 0.00787402 0.00000000
0.29921260 0.00787402 0.00000000
0.30708661 0.00787402 0.00000000
0.31496063 0.00787402 0.00000000
0.32283465 0.00787402 0.00000000
0.33070866 0.00787402 0.00000000
0.33858268 0.00787402 0.00000000
0.34645669 0.00787402 0.00000000
0.35433071 0.00787402 0.00000000
0.36220472 0.00787402 0.00000000
0.37007874 0.00787402 0.00000000
0.37795276 0.00787402 0.00000000
0.38582677 0.00787402 0.00000000
0.39370079 0.00787402 0.00000000
0.40157480 0.00787402 0.00000000
0.40944882 0.00787402 0.00000000
0.41732283 0.00787402 0.00000000
0.42519685 0.00787402 0.00000000
0.43307087 0.00787402 0.00000000
0.44094488 0.00787402 0.00000000
0.44881890 0.00787402 0.00000000
0.45669291 0.00787402 0.00000000
0.46456693 0.00787402 0.00000000
0.47244094 0.00787402 0.00000000
0.48031496 0.00787402 0.00000000
0.48818898 0.00787402 0.00000000
0.49606299 0.00787402 0.00000000
0.50393701 0.00787402 0.00000000
0.51181102 0.00787402 0.00000000
0.51968504 0.00787402 0.00000000
0.52755906 0.00787402 0.00000000
0.53543307 0.00787402 0.00000000
0.54330709 0.00787402 0.00000000
0.55118110 0.00787402 0.00000000
0.55905512 0.00787402 0.00000000
0.56692913 0.00787402 0.00000000
0.57480315 0.00787402 0.00000000
0.58267717 0.00787402 0.00000000
0.59055118 0.00787402 0.00000000
0.59842520 0.00787402 0.00000000
0.60629921 0.00787402 0.00000000
0.61417323 0.00787402 0.00000000
0.62204724 0.00787402 0.00000000
0.62992126 0.00787402 0.00000000
0.63779528 0.00787402 0.00000000
0.64566929 0.00787402 0.00000000
0.65354331 0.00787402 0.00000000
0.66141732 0.00787402 0.00000000
0.66929134 0.00787402 0.00000000
0.67716535 0.00787402 0.00000000
0.68503937 0.00787402 0.00000000
0.69291339 0.00787402 0.00000000
0.70078740 0.00787402 0.00000000
0.70866142 0.00787402 0.00000000
0.71653543 0.00787402 0.00000000
0.72440945 0.00787402 0.00000000
0.73228346 0.00787402 0.00000000
0.74015748 0.00787402 0.00000000
0.74803150 0.00787402 0.00000000
0.75590551 0.00787402 0.00000000
0.76377953 0.00787402 0.00000000
0.77165354 0.00787402 0.00000000
0.77952756 0.00787402 0.00000000
0.78740157 0.00787402 0.00000000
0.79527559 0.00787402 0.00000000
0.80314961 0.00787402 0.00000000
0.81102362 0.00787402 0.00000000
0.81889764 0.00787402 0.00000000
0.82677165 0.00787402 0.00000000
0.83464567 0.00787402 0.00000000
0.84251969 0.00787402 0.00000000
0.85039370 0.00787402 0.00000000
0.85826772 0.00787402 0.00000000
0.86614173 0.00787402 0.00000000
0.87401575 0.00787402 0.00000000
0.88188976 0.00787402 0.00000000
0.88976378 0.00787402 0.00000000
0.89763780 0.00787402 0.00000000
0.90551181 0.00787402 0.00000000
0.91338583 0.00787402 0.00000000
0.92125984 0.00787402 0.00000000
0.92913386 0.00787402 0.00000000
0.93700787 0.00787402 0.00000000
0.94488189 0.00787402 0.00000000
0.95275591 0.00787402 0.00000000
0.96062992 0.00787402 0.00000000
0.96850394 0.00787402 0.00000000
0.97637795 0.00787402 0.00000000
0.98425197 0.00787402 0.00000000
0.99212598 0.00787402 0.00000000
1.00000000 0.00787402 0.00000000
1.00787402 0.00787402 0.00000000
1.01574803 0.00787402 0.00000000
0.00000000 0.01574803 0.00000000
0.00787402 0.01574803 0.00000000
0.01574803 0.01574803 0.00000000
0.02362205 0.01574803 0.00000000
0.03149606 0.01574803 0.00000000
0.03937008 0.01574803 0.00000000
0.04724409 0.01574803 0.00000000
0.05511811 0.01574803 0.00000000
0.06299213 0.01574803 0.00000000
0.07086614 0.01574803 0.00000000
0.07874016 0.01574803 0.00000000
0.08661417 0.01574803 0.00000000
0.09448819 0.01574803 0.00000000
0.10236220 0.01574803 0.00000000
0.11023622 0.01574803 0.00000000
0.11811024 0.01574803 0.00000000
0.12598425 0.01574803 0.00000000
0.13385827 0.01574803 0.00000000
0.14173228 0.01574803 0.00000000
0.14960630 0.01574803 0.00000000
0.15748031 0.01574803 0.00000000
0.16535433 0.01574803 0.00000000
0.17322835 0.01574803 0.00000000
0.18110236 0.01574803 0.00000000
0.18897638 0.01574803 0.00000000
0.19685039 0.01574803 0.00000000
0.20472441 0.01574803 0.00000000
0.21259843 0.01574803 0.00000000
0.22047244 0.01574803 0.00000000
0.22834646 0.01574803 0.00000000
0.23622047 0.01574803 0.00000000
0.24409449 0.01574803 0.00000000
0.25196850 0.01574803 0.00000000
0.25984252 0.01574803 0.00000000
0.26771654 0.01574803 0.00000000
0.27559055 0.01574803 0.00000000
0.28346457 0.01574803 0.00000000
0.29133858 0.01574803 0.00000000
0.29921260 0.01574803 0.00000000
[...]
CELL_DATA 16641
 SCALARS pressure double 1
 LOOKUP_TABLE default
0.00000000
0.00000000
0.00000000
0.00000000
0.00000000
0.00000000
0.00000000
0.00000000
0.00000000
0.00000000
0.00000000
0.00000000
0.00000000
0.00000000
0.00000000
0.00000000
0.00000000
0.00000000
0.00000000
0.00000000
0.00000000
0.00000000
0.00000000
0.00000000
0.00000000
0.00000000
0.00000000
0.00000000
0.00000000
0.00000000
0.00000000
0.00000000
0.00000000
0.00000000
0.00000000
0.00000000
0.00000000
0.00000000
0.00000000
0.00000000
0.00000000
0.00000000
0.00000000
0.00000000
0.00000000
0.00000000
0.00000000
0.00000000
0.00000000
0.00000000
0.00000000
0.00000000
0.00000000
0.00000000
0.00000000
0.00000000
0.00000000
0.00000000
0.00000000
0.00000000
0.00000000
0.00000000
0.00000000
0.00000000
0.00000000
0.00000000
0.00000000
0.00000000
0.00000000
0.00000000
0.00000000
0.00000000
0.00000000
0.00000000
0.00000000
0.00000000
0.00000000
0.00000000
0.00000000
0.00000000
0.00000000
0.00000000
0.00000000
0.00000000
0.00000000
0.00000000
0.00000000
0.00000000
0.00000000
0.00000000
0.00000000
0.00000000
0.00000000
0.00000000
0.00000000
0.00000000
0.00000000
0.00000000
0.00000000
0.00000000
0.00000000
0.00000000
0.00000000
0.00000000
0.00000000
0.00000000
0.00000000
0.00000000
0.00000000
0.00000000
0.00000000
0.00000000
0.00000000
0.00000000
0.00000000
0.00000000
0.00000000
0.00000000
0.00000000
0.00000000
0.00000000
0.00000000
0.00000000
0.00000000
0.00000000
0.00000000
0.00000000
0.00000000
0.00000000
0.00000000
0.03903179
0.03904224
0.03904766
0.03905007
0.03904450
0.03903191
0.03901151
0.03898402
0.03894977
0.03890938
0.03886333
0.03881211
0.03875613
0.03869574
0.03863122
0.03856276
0.03849052
0.03841458
0.03833499
0.03825176
0.03816487
0.03807429
0.03797995
0.03788182
0.03777985
0.03767400
0.03756428
0.03745070
0.03733333
0.03721228
0.03708770
0.03695983
0.03682893
0.03669538
0.03655961
0.03642212
0.03628354
0.03614453
0.03600590
0.03586852
0.03573336
0.03560147
0.03547401
0.03535220
0.03523734
0.03513080
0.03503397
0.03494831
0.03487526
0.03481626
0.03477274
0.03474603
0.03473741
0.03474801
0.03477884
0.03483072
0.03490424
0.03499978
0.03511742
0.03525695
0.03541786
0.03559926
0.03579995
0.03601832
0.03625245
0.03650000
0.03675835
0.03702451
0.03729522
0.03756697
0.03783604
0.03809858
0.03835065
0.03858828
0.03880760
0.03900485
0.03917650
0.03931932
0.03943045
0.03950748
0.03954849
0.03955213
0.03951764
0.03944485
0.03933426
0.03918694
0.03900460
0.03878947
0.03854430
0.03827225
0.03797685
0.03766191
0.03733137
0.03698931
0.03663976
0.03628667
0.03593381
0.03558471
0.03524260
0.03491036
0.03459047
0.03428506
0.03399581
0.03372402
0.03347062
0.03323616
0.03302090
0.03282478
0.03264754
0.03248869
0.03234761
0.03222357
0.03211581
0.03202351
0.03194591
0.03188229
0.03183201
0.03179451
0.03176931
0.03175589
0.03175385
0.03176211
0.03178006
0.03180439
0.03183376
0.03185906
0.03187695
0.00000000
0.00000000
0.03902136
0.03903182
0.03903323
0.03903283
0.03902526
0.03901212
0.03899225
0.03896626
0.03893419
0.03889648
0.03885346
0.03880550
0.03875294
0.03869606
0.03863510
0.03857024
0.03850163
0.03842937
0.03835351
0.03827408
0.03819107
0.03810448
0.03801426
0.03792039
0.03782285
0.03772161
0.03761667
0.03750808
0.03739589
0.03728021
0.03716118
0.03703902
0.03691398
0.03678639
0.03665666
0.03652526
0.03639274
0.03625975
0.03612700
0.03599530
0.03586556
0.03573875
0.03561595
0.03549830
0.03538701
0.03528336
0.03518866
0.03510428
0.03503157
0.03497191
0.03492664
0.03489704
0.03488431
0.03488956
0.03491374
0.03495765
0.03502190
0.03510683
0.03521258
0.03533897
0.03548553
0.03565147
0.03583565
0.03603660
0.03625250
0.03648118
0.03672016
0.03696662
0.03721751
0.03746949
0.03771906
0.03796257
0.03819629
0.03841648
0.03861947
0.03880171
0.03895985
0.03909086
0.03919203
0.03926109
0.03929624
0.03929621
0.03926029
0.03918836
0.03908088
0.03893889
0.03876402
0.03855837
0.03832455
0.03806556
0.03778471
0.03748557
0.03717186
0.03684739
0.03651594
0.03618119
0.03584666
0.03551565
0.03519114
0.03487582
0.03457200
0.03428164
0.03400633
0.03374726
0.03350530
0.03328099
0.03307458
0.03288603
0.03271513
0.03256145
0.03242444
0.03230345
0.03219777
0.03210665
0.03202937
0.03196521
0.03191352
0.03187364
0.03184501
0.03182690
0.03181880
0.03181937
0.03182821
0.03184190
0.03186109
0.03187673
0.03189473
0.00000000
0.00000000
0.03901590
0.03903038
0.03903175
0.03903167
0.03902390
0.03901080
0.03899113
0.03896561
0.03893422
0.03889743
0.03885550
0.03880880
0.03875763
0.03870225
0.03864289
0.03857973
0.03851289
0.03844247
0.03836853
0.03829109
0.03821014
0.03812567
0.03803765
0.03794604
0.03785082
0.03775197
0.03764947
0.03754337
0.03743370
0.03732056
0.03720409
0.03708447
0.03696194
0.03683682
0.03670947
0.03658033
0.03644995
0.03631891
0.03618791
0.03605773
0.03592922
0.03580334
0.03568113
0.03556368
0.03545220
0.03534792
0.03525214
0.03516621
0.03509148
0.03502930
0.03498102
0.03494793
0.03493124
0.03493208
0.03495143
0.03499011
0.03504876
0.03512780
0.03522737
0.03534737
0.03548737
0.03564664
0.03582409
0.03601832
0.03622755
0.03644967
0.03668224
0.03692251
0.03716744
0.03741377
0.03765800
0.03789654
0.03812566
0.03834165
0.03854085
0.03871972
0.03887494
0.03900345
0.03910257
0.03917001
0.03920397
0.03920320
0.03916697
0.03909516
0.03898823
0.03884724
0.03867379
0.03847001
0.03823849
0.03798222
0.03770452
0.03740895
0.03709922
0.03677909
0.03645233
0.03612258
0.03579332
0.03546778
0.03514891
0.03483932
0.03454127
0.03425665
0.03398697
0.03373338
0.03349668
0.03327737
0.03307563
0.03289140
0.03272443
0.03257427
0.03244035
0.03232200
0.03221849
0.03212908
0.03205304
0.03198962
0.03193818
0.03189806
0.03186869
0.03184937
0.03183968
0.03183833
0.03184540
0.03185727
0.03187678
0.03189231
0.03192025
0.00000000
0.00000000
0.03901355
0.03903080
0.03903167
0.03903145
0.03902316
0.03900994
0.03899043
0.03896547
0.03893501
0.03889945
0.03885903
0.03881408
0.03876485
0.03871158
0.03865447
0.03859368
0.03852934
0.03846152
0.03839027
0.03831562
0.03823756
0.03815607
0.03807112
0.03798268
0.03789070
0.03779515
0.03769604
0.03759336
0.03748715
0.03737749
0.03726449
0.03714829
0.03702913
0.03690726
0.03678302
0.03665681
0.03652912
0.03640050
0.03627159
0.03614313
0.03601593
0.03589088
0.03576898
0.03565130
0.03553899
0.03543326
0.03533538
0.03524668
0.03516850
0.03510220
0.03504911
0.03501056
0.03498777
0.03498190
0.03499397
0.03502486
0.03507525
0.03514562
0.03523619
0.03534691
0.03547744
0.03562712
0.03579494
0.03597956
0.03617929
0.03639208
0.03661558
0.03684708
0.03708363
0.03732199
0.03755875
0.03779032
0.03801305
0.03822324
0.03841726
0.03859158
0.03874290
0.03886817
0.03896470
0.03903022
0.03906292
0.03906153
0.03902533
0.03895419
0.03884856
0.03870949
0.03853857
0.03833792
0.03811013
0.03785817
0.03758534
0.03729519
0.03699138
0.03667766
0.03635774
0.03603523
0.03571353
0.03539583
0.03508499
0.03478354
0.03449366
0.03421716
0.03395546
0.03370963
0.03348040
0.03326818
0.03307311
0.03289507
0.03273375
0.03258867
0.03245923
0.03234475
0.03224447
0.03215763
0.03208348
0.03202128
0.03197036
0.03193003
0.03189978
0.03187886
0.03186704
0.03186301
0.03186752
0.03187672
0.03189607
0.03191099
0.03194948
0.00000000
0.00000000
0.03901937
0.03903850
0.03903930
0.03903917
0.03903061
0.03901726
0.03899774
0.03897299
0.03894297
0.03890810
0.03886861
0.03882480
0.03877691
0.03872516
0.03866974
0.03861080
0.03854842
0.03848270
0.03841366
0.03834132
0.03826565
0.03818664
0.03810422
0.03801836
0.03792899
0.03783609
0.03773960
0.03763952
0.03753585
0.03742864
0.03731798
0.03720397
0.03708680
0.03696670
0.03684395
0.03671892
0.03659205
0.03646385
0.03633492
0.03620595
0.03607773
0.03595111
0.03582707
0.03570666
0.03559101
0.03548134
0.03537894
0.03528513
0.03520129
0.03512881
0.03506908
0.03502346
0.03499325
0.03497966
0.03498380
0.03500661
0.03504886
0.03511110
0.03519363
0.03529649
0.03541939
0.03556174
0.03572260
0.03590070
0.03609437
0.03630163
0.03652013
0.03674721
0.03697991
0.03721501
0.03744908
0.03767853
0.03789966
0.03810876
0.03830215
0.03847626
0.03862773
0.03875348
0.03885074
0.03891720
0.03895100
0.03895083
0.03891594
0.03884615
0.03874191
0.03860426
0.03843479
0.03823565
0.03800943
0.03775916
0.03748816
0.03720003
0.03689849
0.03658732
0.03627027
0.03595098
0.03563288
0.03531915
0.03501265
0.03471591
0.03443105
0.03415985
0.03390367
0.03366352
0.03344004
0.03323358
0.03304418
0.03287166
0.03271564
0.03257556
0.03245075
0.03234048
0.03224394
0.03216032
0.03208885
0.03202875
0.03197934
0.03193995
0.03191010
0.03188909
0.03187687
0.03187220
0.03187645
0.03188547
0.03190706
0.03192340
0.03197280
0.00000000
0.00000000
0.03903263
0.03905202
0.03905239
0.03905181
0.03904272
0.03902898
0.03900926
0.03898456
0.03895485
0.03892056
0.03888190
0.03883917
0.03879258
0.03874234
0.03868862
0.03863153
0.03857117
0.03850759
0.03844081
0.03837083
0.03829761
0.03822111
0.03814125
0.03805797
0.03797119
0.03788083
0.03778684
0.03768917
0.03758779
0.03748270
0.03737395
0.03726160
0.03714579
0.03702670
0.03690457
0.03677971
0.03665252
0.03652345
0.03639307
0.03626204
0.03613109
0.03600107
0.03587294
0.03574775
0.03562663
0.03551082
0.03540162
0.03530041
0.03520862
0.03512768
0.03505907
0.03500422
0.03496450
0.03494123
0.03493560
0.03494864
0.03498121
0.03503396
0.03510728
0.03520127
0.03531575
0.03545018
0.03560370
0.03577507
0.03596269
0.03616460
0.03637848
0.03660169
0.03683127
0.03706399
0.03729642
0.03752492
0.03774578
0.03795522
0.03814952
0.03832505
0.03847837
0.03860632
0.03870608
0.03877525
0.03881190
0.03881466
0.03878269
0.03871580
0.03861438
0.03847944
0.03831257
0.03811592
0.03789211
0.03764417
0.03737550
0.03708973
0.03679065
0.03648209
0.03616787
0.03585167
0.03553698
0.03522701
0.03492464
0.03463241
0.03435242
0.03408643
0.03383575
0.03360134
0.03338377
0.03318331
0.03299994
0.03283337
0.03268314
0.03254862
0.03242906
0.03232364
0.03223150
0.03215178
0.03208364
0.03202628
0.03197901
0.03194115
0.03191224
0.03189166
0.03187953
0.03187464
0.03187898
0.03188806
0.03191180
0.03192947
0.03198794
0.00000000
0.00000000
0.03905435
0.03907265
0.03907232
0.03907084
0.03906102
0.03904663
0.03902648
0.03900156
0.03897190
0.03893790
0.03889980
0.03885786
0.03881230
0.03876329
0.03871099
0.03865550
0.03859689
0.03853519
0.03847040
0.03840249
0.03833140
0.03825707
0.03817939
0.03809825
0.03801356
0.03792519
0.03783305
0.03773704
0.03763709
0.03753316
0.03742522
0.03731331
0.03719748
0.03707788
0.03695468
0.03682815
0.03669863
0.03656654
0.03643241
0.03629686
0.03616062
0.03602453
0.03588955
0.03575675
0.03562729
0.03550246
0.03538362
0.03527222
0.03516976
0.03507779
0.03499785
0.03493149
0.03488020
0.03484540
0.03482839
0.03483031
0.03485212
0.03489458
0.03495816
0.03504306
0.03514915
0.03527599
0.03542276
0.03558826
0.03577093
0.03596885
0.03617970
0.03640084
0.03662930
0.03686185
0.03709499
0.03732506
0.03754829
0.03776083
0.03795887
0.03813869
0.03829677
0.03842984
0.03853497
0.03860965
0.03865185
0.03866008
0.03863344
0.03857163
0.03847498
0.03834445
0.03818161
0.03798858
0.03776800
0.03752294
0.03725684
0.03697338
0.03667644
0.03636995
0.03605781
0.03574378
0.03543145
0.03512410
0.03482468
0.03453575
0.03425948
0.03399760
0.03375143
0.03352188
0.03330950
0.03311447
0.03293670
0.03277584
0.03263131
0.03250239
0.03238825
0.03228799
0.03220066
0.03212532
0.03206109
0.03200711
0.03196267
0.03192708
0.03189992
0.03188060
0.03186939
0.03186515
0.03187031
0.03188015
0.03190617
0.03192532
0.03199090
0.00000000
0.00000000
0.03908405
0.03909995
0.03909852
0.03909556
0.03908468
0.03906932
0.03904850
0.03902315
0.03899333
0.03895945
0.03892173
0.03888043
0.03883572
0.03878779
0.03873676
0.03868270
0.03862566
0.03856565
0.03850264
0.03843657
0.03836736
0.03829488
0.03821901
0.03813960
0.03805649
0.03796953
0.03787856
0.03778343
0.03768401
0.03758019
0.03747189
0.03735907
0.03724174
0.03711996
0.03699386
0.03686365
0.03672963
0.03659217
0.03645177
0.03630905
0.03616472
0.03601966
0.03587483
0.03573135
0.03559045
0.03545348
0.03532190
0.03519724
0.03508113
0.03497521
0.03488117
0.03480067
0.03473534
0.03468671
0.03465621
0.03464510
0.03465446
0.03468514
0.03473771
0.03481246
0.03490935
0.03502799
0.03516762
0.03532709
0.03550490
0.03569911
0.03590746
0.03612728
0.03635562
0.03658920
0.03682451
0.03705783
0.03728532
0.03750307
0.03770716
0.03789379
0.03805930
0.03820031
0.03831376
0.03839699
0.03844784
0.03846467
0.03844646
0.03839279
0.03830389
0.03818062
0.03802448
0.03783756
0.03762247
0.03738230
0.03712051
0.03684087
0.03654729
0.03624382
0.03593445
0.03562307
0.03531336
0.03500870
0.03471214
0.03442633
0.03415349
0.03389538
0.03365336
0.03342833
0.03322081
0.03303095
0.03285859
0.03270330
0.03256443
0.03244118
0.03233260
0.03223770
0.03215546
0.03208487
0.03202494
0.03197480
0.03193366
0.03190083
0.03187592
0.03185834
0.03184848
0.03184524
0.03185141
0.03186207
0.03188988
0.03191016
0.03198054
0.00000000
0.00000000
0.03912162
0.03913400
0.03913111
0.03912614
0.03911387
0.03909725
0.03907551
0.03904950
0.03901932
0.03898535
0.03894781
0.03890692
0.03886287
0.03881579
0.03876577
0.03871289
0.03865714
0.03859851
0.03853694
0.03847232
0.03840453
0.03833340
0.03825877
0.03818042
0.03809815
0.03801173
0.03792094
0.03782556
0.03772539
0.03762025
0.03750999
0.03739448
0.03727366
0.03714754
0.03701619
0.03687974
0.03673847
0.03659273
0.03644299
0.03628988
0.03613413
0.03597664
0.03581845
0.03566073
0.03550482
0.03535216
0.03520432
0.03506298
0.03492987
0.03480681
0.03469562
0.03459809
0.03451601
0.03445104
0.03440475
0.03437853
0.03437356
0.03439082
0.03443096
0.03449439
0.03458112
0.03469084
0.03482287
0.03497610
0.03514906
0.03533986
0.03554625
0.03576558
0.03599489
0.03623088
0.03647000
0.03670851
0.03694248
0.03716791
0.03738081
0.03757725
0.03775343
0.03790582
0.03803120
0.03812674
0.03819010
0.03821947
0.03821364
0.03817203
0.03809471
0.03798241
0.03783652
0.03765904
0.03745254
0.03722007
0.03696510
0.03669144
0.03640308
0.03610415
0.03579875
0.03549089
0.03518438
0.03488275
0.03458915
0.03430637
0.03403670
0.03378201
0.03354370
0.03332270
0.03311955
0.03293437
0.03276698
0.03261689
0.03248338
0.03236557
0.03226242
0.03217286
0.03209577
0.03203005
0.03197465
0.03192861
0.03189112
0.03186143
0.03183916
0.03182372
0.03181557
0.03181363
0.03182095
0.03183247
0.03186157
0.03188264
0.03195564
0.00000000
0.00000000
0.03916657
0.03917441
0.03916970
0.03916219
0.03914824
0.03913004
0.03910716
0.03908028
0.03904956
0.03901533
0.03897778
0.03893713
0.03889352
0.03884707
0.03879783
0.03874585
0.03869108
0.03863347
0.03857292
0.03850929
0.03844238
0.03837199
0.03829788
0.03821978
0.03813740
0.03805045
0.03795863
0.03786163
0.03775916
0.03765097
0.03753681
0.03741648
0.03728984
0.03715683
0.03701745
0.03687182
0.03672014
0.03656278
0.03640021
0.03623307
0.03606215
0.03588840
0.03571295
0.03553707
0.03536221
0.03518996
0.03502202
0.03486023
0.03470648
0.03456274
0.03443099
0.03431321
0.03421130
0.03412710
0.03406231
0.03401845
0.03399683
0.03399853
0.03402434
0.03407473
0.03414981
0.03424937
0.03437277
0.03451899
0.03468661
0.03487378
0.03507828
0.03529750
0.03552847
0.03576791
0.03601224
0.03625766
0.03650020
0.03673579
0.03696031
0.03716971
0.03736005
0.03752762
0.03766901
0.03778119
0.03786159
0.03790819
0.03791955
0.03789485
0.03783396
0.03773742
0.03760645
0.03744291
0.03724925
0.03702847
0.03678401
0.03651966
0.03623949
0.03594767
0.03564844
0.03534592
0.03504407
0.03474656
0.03445672
0.03417745
0.03391122
0.03365998
0.03342525
0.03320803
0.03300889
0.03282799
0.03266514
0.03251983
0.03239129
0.03227856
0.03218056
0.03209612
0.03202403
0.03196311
0.03191223
0.03187036
0.03183663
0.03181023
0.03179077
0.03177764
0.03177133
0.03177079
0.03177916
0.03179139
0.03182113
0.03184254
0.03191612
0.00000000
0.00000000
0.03921848
0.03922086
0.03921398
0.03920347
0.03918755
0.03916750
0.03914327
0.03911534
0.03908390
0.03904922
0.03901149
0.03897088
0.03892749
0.03888140
0.03883265
0.03878121
0.03872703
0.03866999
0.03860994
0.03854667
0.03847995
0.03840950
0.03833499
0.03825608
0.03817240
0.03808357
0.03798918
0.03788884
0.03778217
0.03766879
0.03754838
0.03742065
0.03728539
0.03714246
0.03699181
0.03683352
0.03666780
0.03649499
0.03631560
0.03613032
0.03594001
0.03574571
0.03554867
0.03535029
0.03515217
0.03495605
0.03476381
0.03457745
0.03439906
0.03423077
0.03407474
0.03393311
0.03380796
0.03370128
0.03361491
0.03355051
0.03350953
0.03349317
0.03350233
0.03353758
0.03359916
0.03368692
0.03380033
0.03393844
0.03409990
0.03428294
0.03448539
0.03470467
0.03493786
0.03518168
0.03543254
0.03568664
0.03593993
0.03618828
0.03642746
0.03665328
0.03686165
0.03704867
0.03721070
0.03734448
0.03744718
0.03751649
0.03755068
0.03754867
0.03751004
0.03743507
0.03732474
0.03718069
0.03700523
0.03680120
0.03657197
0.03632130
0.03605325
0.03577206
0.03548205
0.03518748
0.03489246
0.03460081
0.03431606
0.03404128
0.03377910
0.03353166
0.03330059
0.03308702
0.03289162
0.03271461
0.03255583
0.03241478
0.03229067
0.03218252
0.03208919
0.03200944
0.03194199
0.03188557
0.03183899
0.03180113
0.03177106
0.03174791
0.03173125
0.03172043
0.03171596
0.03171676
0.03172601
0.03173874
0.03176847
0.03178978
0.03186216
0.00000000
0.00000000
0.03927676
0.03927283
0.03926348
0.03924953
0.03923139
0.03920924
0.03918349
0.03915433
0.03912202
0.03908674
0.03904864
0.03900785
0.03896444
0.03891843
0.03886981
0.03881853
0.03876445
0.03870742
0.03864723
0.03858359
0.03851620
0.03844469
0.03836866
0.03828767
0.03820124
0.03810887
0.03801008
0.03790434
0.03779116
0.03767008
0.03754065
0.03740252
0.03725538
0.03709904
0.03693341
0.03675855
0.03657466
0.03638211
0.03618147
0.03597351
0.03575917
0.03553965
0.03531631
0.03509072
0.03486466
0.03464005
0.03441896
0.03420358
0.03399619
0.03379911
0.03361470
0.03344527
0.03329306
0.03316023
0.03304878
0.03296051
0.03289702
0.03285963
0.03284937
0.03286693
0.03291267
0.03298655
0.03308814
0.03321661
0.03337070
0.03354872
0.03374858
0.03396779
0.03420346
0.03445235
0.03471091
0.03497529
0.03524145
0.03550516
0.03576211
0.03600798
0.03623850
0.03644956
0.03663728
0.03679813
0.03692898
0.03702718
0.03709067
0.03711801
0.03710843
0.03706187
0.03697900
0.03686117
0.03671041
0.03652940
0.03632133
0.03608987
0.03583904
0.03557311
0.03529644
0.03501342
0.03472829
0.03444507
0.03416747
0.03389879
0.03364185
0.03339900
0.03317206
0.03296232
0.03277059
0.03259721
0.03244208
0.03230477
0.03218452
0.03208034
0.03199106
0.03191540
0.03185204
0.03179963
0.03175691
0.03172269
0.03169596
0.03167582
0.03166174
0.03165306
0.03165022
0.03165218
0.03166201
0.03167493
0.03170403
0.03172479
0.03179444
0.00000000
0.00000000
0.03934080
0.03932974
0.03931765
0.03929986
0.03927928
0.03925482
0.03922740
0.03919686
0.03916355
0.03912749
0.03908885
0.03904765
0.03900393
0.03895766
0.03890878
0.03885715
0.03880262
0.03874493
0.03868381
0.03861889
0.03854979
0.03847603
0.03839711
0.03831248
0.03822154
0.03812369
0.03801828
0.03790471
0.03778234
0.03765060
0.03750896
0.03735696
0.03719422
0.03702051
0.03683571
0.03663987
0.03643323
0.03621621
0.03598946
0.03575384
0.03551046
0.03526063
0.03500591
0.03474806
0.03448903
0.03423095
0.03397612
0.03372692
0.03348584
0.03325541
0.03303815
0.03283658
0.03265313
0.03249011
0.03234969
0.03223383
0.03214427
0.03208248
0.03204963
0.03204655
0.03207374
0.03213128
0.03221888
0.03233582
0.03248097
0.03265276
0.03284921
0.03306791
0.03330607
0.03356050
0.03382769
0.03410383
0.03438485
0.03466647
0.03494431
0.03521390
0.03547082
0.03571073
0.03592950
0.03612330
0.03628864
0.03642251
0.03652244
0.03658657
0.03661371
0.03660338
0.03655581
0.03647199
0.03635362
0.03620305
0.03602327
0.03581776
0.03559043
0.03534551
0.03508739
0.03482055
0.03454935
0.03427801
0.03401044
0.03375016
0.03350026
0.03326333
0.03304140
0.03283601
0.03264813
0.03247829
0.03232653
0.03219249
0.03207551
0.03197463
0.03188869
0.03181641
0.03175642
0.03170735
0.03166787
0.03163672
0.03161283
0.03159523
0.03158334
0.03157644
0.03157491
0.03157772
0.03158777
0.03160052
0.03162840
0.03164821
0.03171389
0.00000000
0.00000000
0.03940984
0.03939088
0.03937581
0.03935384
0.03933063