# vtk DataFile Version 3.0
particle point data
ASCII
DATASET STRUCTURED_GRID
DIMENSIONS 143 143 2
POINTS 40898 double
0.00000000 0.00000000 0.00000000
0.00714286 0.00000000 0.00000000
0.01428571 0.00000000 0.00000000
0.02142857 0.00000000 0.00000000
0.02857143 0.00000000 0.00000000
0.03571429 0.00000000 0.00000000
0.04285714 0.00000000 0.00000000
0.05000000 0.00000000 0.00000000
0.05714286 0.00000000 0.00000000
0.06428571 0.00000000 0.00000000
0.07142857 0.00000000 0.00000000
0.07857143 0.00000000 0.00000000
0.08571429 0.00000000 0.00000000
0.09285714 0.00000000 0.00000000
0.10000000 0.00000000 0.00000000
0.10714286 0.00000000 0.00000000
0.11428571 0.00000000 0.00000000
0.12142857 0.00000000 0.00000000
0.12857143 0.00000000 0.00000000
0.13571429 0.00000000 0.00000000
0.14285714 0.00000000 0.00000000
0.15000000 0.00000000 0.00000000
0.15714286 0.00000000 0.00000000
0.16428571 0.00000000 0.00000000
0.17142857 0.00000000 0.00000000
0.17857143 0.00000000 0.00000000
0.18571429 0.00000000 0.00000000
0.19285714 0.00000000 0.00000000
0.20000000 0.00000000 0.00000000
0.20714286 0.00000000 0.00000000
0.21428571 0.00000000 0.00000000
0.22142857 0.00000000 0.00000000
0.22857143 0.00000000 0.00000000
0.23571429 0.00000000 0.00000000
0.24285714 0.00000000 0.00000000
0.25000000 0.00000000 0.00000000
0.25714286 0.00000000 0.00000000
0.26428571 0.00000000 0.00000000
0.27142857 0.00000000 0.00000000
0.27857143 0.00000000 0.00000000
0.28571429 0.00000000 0.00000000
0.29285714 0.00000000 0.00000000
0.30000000 0.00000000 0.00000000
0.30714286 0.00000000 0.00000000
0.31428571 0.00000000 0.00000000
0.32142857 0.00000000 0.00000000
0.32857143 0.00000000 0.00000000
0.33571429 0.00000000 0.00000000
0.34285714 0.00000000 0.00000000
0.35000000 0.00000000 0.00000000
0.35714286 0.00000000 0.00000000
0.36428571 0.00000000 0.00000000
0.37142857 0.00000000 0.00000000
0.37857143 0.00000000 0.00000000
0.38571429 0.00000000 0.00000000
0.39285714 0.00000000 0.00000000
0.40000000 0.00000000 0.00000000
0.40714286 0.00000000 0.00000000
0.41428571 0.00000000 0.00000000
0.42142857 0.00000000 0.00000000
0.42857143 0.00000000 0.00000000
0.43571429 0.00000000 0.00000000
0.44285714 0.00000000 0.00000000
0.45000000 0.00000000 0.00000000
0.45714286 0.00000000 0.00000000
0.46428571 0.00000000 0.00000000
0.47142857 0.00000000 0.00000000
0.47857143 0.00000000 0.00000000
0.48571429 0.00000000 0.00000000
0.49285714 0.00000000 0.00000000
0.50000000 0.00000000 0.00000000
0.50714286 0.00000000 0.00000000
0.51428571 0.00000000 0.00000000
0.52142857 0.00000000 0.00000000
0.52857143 0.00000000 0.00000000
0.53571429 0.00000000 0.00000000
0.54285714 0.00000000 0.00000000
0.55000000 0.00000000 0.00000000
0.55714286 0.00000000 0.00000000
0.56428571 0.00000000 0.00000000
0.57142857 0.00000000 0.00000000
0.57857143 0.00000000 0.00000000
0.58571429 0.00000000 0.00000000
0.59285714 0.00000000 0.00000000
0.60000000 0.00000000 0.00000000
0.60714286 0.00000000 0.00000000
0.61428571 0.00000000 0.00000000
0.62142857 0.00000000 0.00000000
0.62857143 0.00000000 0.00000000
0.63571429 0.00000000 0.00000000
0.64285714 0.00000000 0.00000000
0.65000000 0.00000000 0.00000000
0.65714286 0.00000000 0.00000000
0.66428571 0.00000000 0.00000000
0.67142857 0.00000000 0.00000000
0.67857143 0.00000000 0.00000000
0.68571429 0.00000000 0.00000000
0.69285714 0.00000000 0.00000000
0.70000000 0.00000000 0.00000000
0.70714286 0.00000000 0.00000000
0.71428571 0.00000000 0.00000000
0.72142857 0.00000000 0.00000000
0.72857143 0.00000000 0.00000000
0.73571429 0.00000000 0.00000000
0.74285714 0.00000000 0.00000000
0.75000000 0.00000000 0.00000000
0.75714286 0.00000000 0.00000000
0.76428571 0.00000000 0.00000000
0.77142857 0.00000000 0.00000000
0.77857143 0.00000000 0.00000000
0.78571429 0.00000000 0.00000000
0.79285714 0.00000000 0.00000000
0.80000000 0.00000000 0.00000000
0.80714286 0.00000000 0.00000000
0.81428571 0.00000000 0.00000000
0.82142857 0.00000000 0.00000000
0.82857143 0.00000000 0.00000000
0.83571429 0.00000000 0.00000000
0.84285714 0.00000000 0.00000000
0.85000000 0.00000000 0.00000000
0.85714286 0.00000000 0.00000000
0.86428571 0.00000000 0.00000000
0.87142857 0.00000000 0.00000000
0.87857143 0.00000000 0.00000000
0.88571429 0.00000000 0.00000000
0.89285714 0.00000000 0.00000000
0.90000000 0.00000000 0.00000000
0.90714286 0.00000000 0.00000000
0.91428571 0.00000000 0.00000000
0.92142857 0.00000000 0.00000000
0.92857143 0.00000000 0.00000000
0.93571429 0.00000000 0.00000000
0.94285714 0.00000000 0.00000000
0.95000000 0.00000000 0.00000000
0.95714286 0.00000000 0.00000000
0.96428571 0.00000000 0.00000000
0.97142857 0.00000000 0.00000000
0.97857143 0.00000000 0.00000000
0.98571429 0.00000000 0.00000000
0.99285714 0.00000000 0.00000000
1.00000000 0.00000000 0.00000000
1.00714286 0.00000000 0.00000000
1.01428571 0.00000000 0.00000000
0.00000000 0.00714286 0.00000000
0.00714286 0.00714286 0.00000000
0.01428571 0.00714286 0.00000000
0.02142857 0.00714286 0.00000000
0.02857143 0.00714286 0.00000000
0.03571429 0.00714286 0.00000000
0.04285714 0.00714286 0.00000000
0.05000000 0.00714286 0.00000000
0.05714286 0.00714286 0.00000000
0.06428571 0.00714286 0.00000000
0.07142857 0.00714286 0.00000000
0.07857143 0.00714286 0.00000000
0.08571429 0.00714286 0.00000000
0.09285714 0.00714286 0.00000000
0.10000000 0.00714286 0.00000000
0.10714286 0.00714286 0.00000000
0.11428571 0.00714286 0.00000000
0.12142857 0.00714286 0.00000000
0.12857143 0.00714286 0.00000000
0.13571429 0.00714286 0.00000000
0.14285714 0.00714286 0.00000000
0.15000000 0.00714286 0.00000000
0.15714286 0.00714286 0.00000000
0.16428571 0.00714286 0.00000000
0.17142857 0.00714286 0.00000000
0.17857143 0.00714286 0.00000000
0.18571429 0.00714286 0.00000000
0.19285714 0.00714286 0.00000000
0.20000000 0.00714286 0.00000000
0.20714286 0.00714286 0.00000000
0.21428571 0.00714286 0.00000000
0.22142857 0.00714286 0.00000000
0.22857143 0.00714286 0.00000000
0.23571429 0.00714286 0.00000000
0.24285714 0.00714286 0.00000000
0.25000000 0.00714286 0.00000000
0.25714286 0.00714286 0.00000000
0.26428571 0.00714286 0.00000000
0.27142857 0.00714286 0.00000000
0.27857143 0.00714286 0.00000000
0.28571429 0.00714286 0.00000000
0.29285714 0.00714286 0.00000000
0.30000000 0.00714286 0.00000000
0.30714286 0.00714286 0.00000000
0.31428571 0.00714286 0.00000000
0.32142857 0.00714286 0.00000000
0.32857143 0.00714286 0.00000000
0.33571429 0.00714286 0.00000000
0.34285714 0.00714286 0.00000000
0.35000000 0.00714286 0.00000000
0.35714286 0.00714286 0.00000000
0.36428571 0.00714286 0.00000000
0.37142857 0.00714286 0.00000000
0.37857143 0.00714286 0.00000000
0.38571429 0.00714286 0.00000000
0.39285714 0.00714286 0.00000000
0.40000000 0.00714286 0.00000000
0.40714286 0.00714286 0.00000000
0.41428571 0.00714286 0.00000000
0.42142857 0.00714286 0.00000000
0.42857143 0.00714286 0.00000000
0.43571429 0.00714286 0.00000000
0.44285714 0.00714286 0.00000000
0.45000000 0.00714286 0.00000000
0.45714286 0.00714286 0.00000000
0.46428571 0.00714286 0.00000000
0.47142857 0.00714286 0.00000000
0.47857143 0.00714286 0.00000000
0.48571429 0.00714286 0.00000000
0.49285714 0.00714286 0.00000000
0.50000000 0.00714286 0.00000000
0.50714286 0.00714286 0.00000000
0.51428571 0.00714286 0.00000000
0.52142857 0.00714286 0.00000000
0.52857143 0.00714286 0.00000000
0.53571429 0.00714286 0.00000000
0.54285714 0.00714286 0.00000000
0.55000000 0.00714286 0.00000000
0.55714286 0.00714286 0.00000000
0.56428571 0.00714286 0.00000000
0.57142857 0.00714286 0.00000000
0.57857143 0.00714286 0.00000000
0.58571429 0.00714286 0.00000000
0.59285714 0.00714286 0.00000000
0.60000000 0.00714286 0.00000000
0.60714286 0.00714286 0.00000000
0.61428571 0.00714286 0.00000000
0.62142857 0.00714286 0.00000000
0.62857143 0.00714286 0.00000000
0.63571429 0.00714286 0.00000000
0.64285714 0.00714286 0.00000000
0.65000000 0.00714286 0.00000000
0.65714286 0.00714286 0.00000000
0.66428571 0.00714286 0.00000000
0.67142857 0.00714286 0.00000000
0.67857143 0.00714286 0.00000000
0.68571429 0.00714286 0.00000000
0.69285714 0.00714286 0.00000000
0.70000000 0.00714286 0.00000000
0.70714286 0.00714286 0.00000000
0.71428571 0.00714286 0.00000000
0.72142857 0.00714286 0.00000000
0.72857143 0.00714286 0.00000000
0.73571429 0.00714286 0.00000000
0.74285714 0.00714286 0.00000000
0.75000000 0.00714286 0.00000000
0.75714286 0.00714286 0.00000000
0.76428571 0.00714286 0.00000000
0.77142857 0.00714286 0.00000000
0.77857143 0.00714286 0.00000000
0.78571429 0.00714286 0.00000000
0.79285714 0.00714286 0.00000000
0.80000000 0.00714286 0.00000000
0.80714286 0.00714286 0.00000000
0.81428571 0.00714286 0.00000000
0.82142857 0.00714286 0.00000000
0.82857143 0.00714286 0.00000000
0.83571429 0.00714286 0.00000000
0.84285714 0.00714286 0.00000000
0.85000000 0.00714286 0.00000000
0.85714286 0.00714286 0.00000000
0.86428571 0.00714286 0.00000000
0.87142857 0.00714286 0.00000000
0.87857143 0.00714286 0.00000000
0.88571429 0.00714286 0.00000000
0.89285714 0.00714286 0.00000000
0.90000000 0.00714286 0.00000000
0.90714286 0.00714286 0.00000000
0.91428571 0.00714286 0.00000000
0.92142857 0.00714286 0.00000000
0.92857143 0.00714286 0.00000000
0.93571429 0.00714286 0.00000000
0.94285714 0.00714286 0.00000000
0.95000000 0.00714286 0.00000000
0.95714286 0.00714286 0.00000000
0.96428571 0.00714286 0.00000000
0.97142857 0.00714286 0.00000000
0.97857143 0.00714286 0.00000000
0.98571429 0.00714286 0.00000000
0.99285714 0.00714286 0.00000000
1.00000000 0.00714286 0.00000000
1.00714286 0.00714286 0.00000000
1.01428571 0.00714286 0.00000000
0.00000000 0.01428571 0.00000000
0.00714286 0.01428571 0.00000000
0.01428571 0.01428571 0.00000000
0.02142857 0.01428571 0.00000000
0.02857143 0.01428571 0.00000000
0.03571429 0.01428571 0.00000000
0.04285714 0.01428571 0.00000000
0.05000000 0.01428571 0.00000000
0.05714286 0.01428571 0.00000000
0.06428571 0.01428571 0.00000000
0.07142857 0.01428571 0.00000000
0.07857143 0.01428571 0.00000000
0.08571429 0.01428571 0.00000000
[...]
CELL_DATA 20164
SCALARS pressure double 
 LOOKUP_TABLE default
0.00000000
0.00000000
0.00000000
0.00000000
0.00000000
0.00000000
0.00000000
0.00000000
0.00000000
0.00000000
0.00000000
0.00000000
0.00000000
0.00000000
0.00000000
0.00000000
0.00000000
0.00000000
0.00000000
0.00000000
0.00000000
0.00000000
0.00000000
0.00000000
0.00000000
0.00000000
0.00000000
0.00000000
0.00000000
0.00000000
0.00000000
0.00000000
0.00000000
0.00000000
0.00000000
0.00000000
0.00000000
0.00000000
0.00000000
0.00000000
0.00000000
0.00000000
0.00000000
0.00000000
0.00000000
0.00000000
0.00000000
0.00000000
0.00000000
0.00000000
0.00000000
0.00000000
0.00000000
0.00000000
0.00000000
0.00000000
0.00000000
0.00000000
0.00000000
0.00000000
0.00000000
0.00000000
0.00000000
0.00000000
0.00000000
0.00000000
0.00000000
0.00000000
0.00000000
0.00000000
0.00000000
0.00000000
0.00000000
0.00000000
0.00000000
0.00000000
0.00000000
0.00000000
0.00000000
0.00000000
0.00000000
0.00000000
0.00000000
0.00000000
0.00000000
0.00000000
0.00000000
0.00000000
0.00000000
0.00000000
0.00000000
0.00000000
0.00000000
0.00000000
0.00000000
0.00000000
0.00000000
0.00000000
0.00000000
0.00000000
0.00000000
0.00000000
0.00000000
0.00000000
0.00000000
0.00000000
0.00000000
0.00000000
0.00000000
0.00000000
0.00000000
0.00000000
0.00000000
0.00000000
0.00000000
0.00000000
0.00000000
0.00000000
0.00000000
0.00000000
0.00000000
0.00000000
0.00000000
0.00000000
0.00000000
0.00000000
0.00000000
0.00000000
0.00000000
0.00000000
0.00000000
0.00000000
0.00000000
0.00000000
0.00000000
0.00000000
0.00000000
0.00000000
0.00000000
0.00000000
0.00000000
0.00000000
0.00000000
0.04396838
0.04397809
0.04399054
0.04399977
0.04400223
0.04399603
0.04398037
0.04395506
0.04392035
0.04387673
0.04382483
0.04376533
0.04369893
0.04362627
0.04354795
0.04346447
0.04337624
0.04328355
0.04318660
0.04308550
0.04298024
0.04287077
0.04275696
0.04263863
0.04251557
0.04238756
0.04225439
0.04211583
0.04197172
0.04182190
0.04166628
0.04150482
0.04133753
0.04116452
0.04098592
0.04080200
0.04061306
0.04041953
0.04022189
0.04002073
0.03981676
0.03961076
0.03940362
0.03919634
0.03899003
0.03878587
0.03858517
0.03838932
0.03819980
0.03801816
0.03784604
0.03768509
0.03753702
0.03740357
0.03728645
0.03718737
0.03710797
0.03704983
0.03701441
0.03700306
0.03701697
0.03705712
0.03712430
0.03721904
0.03734163
0.03749202
0.03766989
0.03787458
0.03810507
0.03836000
0.03863765
0.03893592
0.03925240
0.03958430
0.03992853
0.04028171
0.04064021
0.04100015
0.04135750
0.04170810
0.04204774
0.04237221
0.04267734
0.04295913
0.04321375
0.04343769
0.04362772
0.04378106
0.04389536
0.04396880
0.04400009
0.04398851
0.04393396
0.04383692
0.04369847
0.04352023
0.04330441
0.04305365
0.04277107
0.04246013
0.04212458
0.04176838
0.04139566
0.04101054
0.04061717
0.04021955
0.03982153
0.03942672
0.03903846
0.03865974
0.03829321
0.03794115
0.03760543
0.03728757
0.03698869
0.03670959
0.03645071
0.03621220
0.03599396
0.03579565
0.03561674
0.03545656
0.03531434
0.03518923
0.03508036
0.03498684
0.03490785
0.03484261
0.03479041
0.03475063
0.03472273
0.03470620
0.03470051
0.03470502
0.03471879
0.03474037
0.03476737
0.03479608
0.03482082
0.03483395
0.00000000
0.00000000
0.04395866
0.04396839
0.04397766
0.04398325
0.04398277
0.04397470
0.04395825
0.04393314
0.04389947
0.04385756
0.04380791
0.04375106
0.04368758
0.04361804
0.04354294
0.04346274
0.04337778
0.04328834
0.04319460
0.04309666
0.04299453
0.04288817
0.04277746
0.04266225
0.04254236
0.04241759
0.04228775
0.04215265
0.04201212
0.04186603
0.04171429
0.04155687
0.04139377
0.04122508
0.04105095
0.04087159
0.04068731
0.04049849
0.04030560
0.04010920
0.03990993
0.03970855
0.03950592
0.03930297
0.03910076
0.03890044
0.03870326
0.03851056
0.03832377
0.03814439
0.03797399
0.03781419
0.03766665
0.03753306
0.03741510
0.03731443
0.03723268
0.03717138
0.03713198
0.03711583
0.03712409
0.03715777
0.03721764
0.03730426
0.03741794
0.03755867
0.03772616
0.03791979
0.03813861
0.03838132
0.03864626
0.03893142
0.03923447
0.03955271
0.03988315
0.04022250
0.04056723
0.04091359
0.04125765
0.04159537
0.04192264
0.04223536
0.04252949
0.04280111
0.04304651
0.04326226
0.04344522
0.04359269
0.04370239
0.04377253
0.04380188
0.04378974
0.04373601
0.04364117
0.04350626
0.04333290
0.04312319
0.04287973
0.04260554
0.04230397
0.04197866
0.04163347
0.04127235
0.04089931
0.04051834
0.04013330
0.03974791
0.03936563
0.03898965
0.03862287
0.03826781
0.03792665
0.03760118
0.03729286
0.03700276
0.03673162
0.03647988
0.03624769
0.03603493
0.03584131
0.03566631
0.03550932
0.03536960
0.03524633
0.03513870
0.03504587
0.03496702
0.03490139
0.03484826
0.03480699
0.03477698
0.03475764
0.03474835
0.03474836
0.03475669
0.03477191
0.03479197
0.03481394
0.03483389
0.03484708
0.00000000
0.00000000
0.04394617
0.04395912
0.04396841
0.04397274
0.04397080
0.04396162
0.04394463
0.04391962
0.04388665
0.04384599
0.04379805
0.04374328
0.04368219
0.04361527
0.04354296
0.04346568
0.04338372
0.04329735
0.04320672
0.04311192
0.04301296
0.04290980
0.04280232
0.04269039
0.04257384
0.04245248
0.04232613
0.04219460
0.04205774
0.04191542
0.04176754
0.04161407
0.04145500
0.04129041
0.04112042
0.04094523
0.04076511
0.04058042
0.04039158
0.04019911
0.04000364
0.03980586
0.03960658
0.03940671
0.03920725
0.03900931
0.03881409
0.03862289
0.03843709
0.03825815
0.03808762
0.03792708
0.03777817
0.03764255
0.03752188
0.03741782
0.03733197
0.03726590
0.03722106
0.03719879
0.03720029
0.03722658
0.03727849
0.03735660
0.03746126
0.03759252
0.03775014
0.03793356
0.03814189
0.03837388
0.03862795
0.03890216
0.03919423
0.03950155
0.03982120
0.04014996
0.04048435
0.04082071
0.04115516
0.04148373
0.04180237
0.04210703
0.04239373
0.04265860
0.04289798
0.04310845
0.04328694
0.04343076
0.04353765
0.04360585
0.04363414
0.04362182
0.04356880
0.04347554
0.04334309
0.04317303
0.04296746
0.04272893
0.04246043
0.04216527
0.04184703
0.04150950
0.04115658
0.04079220
0.04042027
0.04004458
0.03966873
0.03929612
0.03892984
0.03857268
0.03822710
0.03789517
0.03757863
0.03727883
0.03699680
0.03673322
0.03648848
0.03626270
0.03605575
0.03586730
0.03569686
0.03554378
0.03540736
0.03528679
0.03518125
0.03508993
0.03501202
0.03494675
0.03489339
0.03485129
0.03481983
0.03479838
0.03478633
0.03478296
0.03478737
0.03479842
0.03481455
0.03483378
0.03485371
0.03487185
0.00000000
0.00000000
0.04393680
0.04395345
0.04396405
0.04396835
0.04396585
0.04395608
0.04393873
0.04391375
0.04388123
0.04384144
0.04379475
0.04374160
0.04368244
0.04361772
0.04354784
0.04347316
0.04339398
0.04331050
0.04322288
0.04313118
0.04303540
0.04293549
0.04283133
0.04272279
0.04260968
0.04249183
0.04236904
0.04224114
0.04210795
0.04196935
0.04182523
0.04167552
0.04152023
0.04135939
0.04119310
0.04102154
0.04084493
0.04066360
0.04047794
0.04028842
0.04009562
0.03990020
0.03970292
0.03950464
0.03930632
0.03910904
0.03891395
0.03872232
0.03853550
0.03835494
0.03818216
0.03801874
0.03786629
0.03772650
0.03760103
0.03749155
0.03739970
0.03732706
0.03727512
0.03724526
0.03723873
0.03725660
0.03729975
0.03736882
0.03746422
0.03758606
0.03773417
0.03790803
0.03810683
0.03832938
0.03857415
0.03883926
0.03912249
0.03942128
0.03973274
0.04005371
0.04038075
0.04071022
0.04103828
0.04136098
0.04167428
0.04197416
0.04225662
0.04251782
0.04275409
0.04296200
0.04313849
0.04328084
0.04338679
0.04345457
0.04348294
0.04347120
0.04341924
0.04332752
0.04319708
0.04302950
0.04282686
0.04259173
0.04232707
0.04203621
0.04172271
0.04139037
0.04104306
0.04068470
0.04031916
0.03995022
0.03958143
0.03921614
0.03885740
0.03850794
0.03817014
0.03784602
0.03753723
0.03724507
0.03697049
0.03671411
0.03647625
0.03625698
0.03605612
0.03587330
0.03570798
0.03555952
0.03542715
0.03531008
0.03520748
0.03511850
0.03504234
0.03497821
0.03492540
0.03488322
0.03485106
0.03482832
0.03481444
0.03480880
0.03481071
0.03481936
0.03483375
0.03485278
0.03487527
0.03490033
0.00000000
0.00000000
0.04393406
0.04395378
0.04396583
0.04397053
0.04396786
0.04395771
0.04394007
0.04391499
0.04388268
0.04384343
0.04379763
0.04374570
0.04368807
0.04362518
0.04355740
0.04348506
0.04340842
0.04332768
0.04324296
0.04315430
0.04306168
0.04296502
0.04286421
0.04275908
0.04264945
0.04253512
0.04241588
0.04229155
0.04216192
0.04202687
0.04188625
0.04173999
0.04158805
0.04143044
0.04126722
0.04109854
0.04092458
0.04074561
0.04056199
0.04037415
0.04018261
0.03998800
0.03979102
0.03959250
0.03939337
0.03919465
0.03899751
0.03880316
0.03861298
0.03842837
0.03825089
0.03808210
0.03792367
0.03777728
0.03764466
0.03752750
0.03742749
0.03734627
0.03728540
0.03724632
0.03723034
0.03723861
0.03727207
0.03733143
0.03741718
0.03752949
0.03766824
0.03783301
0.03802302
0.03823714
0.03847390
0.03873146
0.03900763
0.03929988
0.03960537
0.03992094
0.04024318
0.04056843
0.04089288
0.04121256
0.04152342
0.04182141
0.04210253
0.04236289
0.04259878
0.04280676
0.04298369
0.04312685
0.04323391
0.04330308
0.04333306
0.04332315
0.04327320
0.04318365
0.04305553
0.04289040
0.04269038
0.04245803
0.04219633
0.04190862
0.04159851
0.04126980
0.04092640
0.04057225
0.04021126
0.03984718
0.03948361
0.03912386
0.03877098
0.03842767
0.03809628
0.03777878
0.03747676
0.03719147
0.03692379
0.03667426
0.03644315
0.03623045
0.03603590
0.03585909
0.03569942
0.03555618
0.03542857
0.03531576
0.03521687
0.03513105
0.03505744
0.03499527
0.03494378
0.03490233
0.03487029
0.03484712
0.03483234
0.03482547
0.03482607
0.03483366
0.03484779
0.03486803
0.03489414
0.03492628
0.00000000
0.00000000
0.04393991
0.04396165
0.04397475
0.04397975
0.04397691
0.04396639
0.04394835
0.04392300
0.04389064
0.04385163
0.04380637
0.04375532
0.04369889
0.04363750
0.04357153
0.04350127
0.04342697
0.04334880
0.04326684
0.04318112
0.04309158
0.04299813
0.04290062
0.04279885
0.04269263
0.04258171
0.04246589
0.04234492
0.04221861
0.04208676
0.04194923
0.04180589
0.04165666
0.04150153
0.04134051
0.04117368
0.04100120
0.04082329
0.04064024
0.04045245
0.04026039
0.04006463
0.03986586
0.03966486
0.03946253
0.03925990
0.03905808
0.03885834
0.03866201
0.03847057
0.03828555
0.03810859
0.03794140
0.03778571
0.03764330
0.03751596
0.03740545
0.03731348
0.03724168
0.03719159
0.03716461
0.03716196
0.03718466
0.03723351
0.03730906
0.03741156
0.03754096
0.03769688
0.03787861
0.03808506
0.03831480
0.03856602
0.03883657
0.03912394
0.03942528
0.03973746
0.04005705
0.04038040
0.04070365
0.04102283
0.04133385
0.04163262
0.04191508
0.04217729
0.04241549
0.04262617
0.04280612
0.04295255
0.04306307
0.04313582
0.04316946
0.04316320
0.04311686
0.04303085
0.04290617
0.04274438
0.04254757
0.04231833
0.04205966
0.04177494
0.04146781
0.04114212
0.04080184
0.04045097
0.04009344
0.03973308
0.03937351
0.03901809
0.03866987
0.03833157
0.03800553
0.03769369
0.03739764
0.03711855
0.03685726
0.03661425
0.03638971
0.03618356
0.03599547
0.03582495
0.03567132
0.03553381
0.03541155
0.03530366
0.03520919
0.03512726
0.03505698
0.03499753
0.03494817
0.03490822
0.03487712
0.03485436
0.03483955
0.03483238
0.03483261
0.03484010
0.03485483
0.03487691
0.03490676
0.03494520
0.00000000
0.00000000
0.04395535
0.04397802
0.04399151
0.04399642
0.04399317
0.04398206
0.04396342
0.04393758
0.04390491
0.04386584
0.04382082
0.04377032
0.04371478
0.04365462
0.04359018
0.04352176
0.04344959
0.04337379
0.04329443
0.04321149
0.04312490
0.04303452
0.04294016
0.04284160
0.04273858
0.04263085
0.04251813
0.04240017
0.04227672
0.04214754
0.04201245
0.04187126
0.04172386
0.04157016
0.04141013
0.04124381
0.04107129
0.04089274
0.04070840
0.04051861
0.04032380
0.04012451
0.03992139
0.03971521
0.03950686
0.03929736
0.03908784
0.03887958
0.03867396
0.03847249
0.03827677
0.03808852
0.03790950
0.03774154
0.03758652
0.03744630
0.03732275
0.03721769
0.03713284
0.03706984
0.03703018
0.03701517
0.03702592
0.03706332
0.03712798
0.03722022
0.03734006
0.03748717
0.03766087
0.03786014
0.03808356
0.03832937
0.03859541
0.03887920
0.03917789
0.03948835
0.03980713
0.04013057
0.04045478
0.04077574
0.04108933
0.04139138
0.04167780
0.04194455
0.04218781
0.04240396
0.04258973
0.04274221
0.04285894
0.04293796
0.04297782
0.04297768
0.04293729
0.04285697
0.04273770
0.04258098
0.04238891
0.04216407
0.04190948
0.04162853
0.04132493
0.04100257
0.04066550
0.04031778
0.03996343
0.03960633
0.03925020
0.03889843
0.03855416
0.03822012
0.03789868
0.03759180
0.03730105
0.03702760
0.03677222
0.03653537
0.03631717
0.03611747
0.03593586
0.03577176
0.03562442
0.03549299
0.03537654
0.03527407
0.03518462
0.03510721
0.03504092
0.03498490
0.03493838
0.03490069
0.03487127
0.03484968
0.03483561
0.03482889
0.03482947
0.03483749
0.03485324
0.03487727
0.03491043
0.03495397
0.00000000
0.00000000
0.04398084
0.04400341
0.04401654
0.04402084
0.04401678
0.04400478
0.04398525
0.04395863
0.04392537
0.04388596
0.04384089
0.04379066
0.04373573
0.04367651
0.04361335
0.04354653
0.04347625
0.04340261
0.04332563
0.04324528
0.04316142
0.04307387
0.04298240
0.04288673
0.04278658
0.04268162
0.04257154
0.04245601
0.04233475
0.04220745
0.04207386
0.04193377
0.04178697
0.04163332
0.04147274
0.04130518
0.04113068
0.04094936
0.04076141
0.04056711
0.04036686
0.04016118
0.03995069
0.03973616
0.03951850
0.03929873
0.03907804
0.03885774
0.03863930
0.03842429
0.03821441
0.03801146
0.03781732
0.03763392
0.03746326
0.03730732
0.03716808
0.03704746
0.03694733
0.03686940
0.03681527
0.03678635
0.03678383
0.03680868
0.03686159
0.03694293
0.03705278
0.03719086
0.03735655
0.03754884
0.03776635
0.03800735
0.03826969
0.03855090
0.03884813
0.03915825
0.03947780
0.03980309
0.04013020
0.04045507
0.04077352
0.04108134
0.04137434
0.04164841
0.04189962
0.04212427
0.04231896
0.04248067
0.04260682
0.04269533
0.04274463
0.04275377
0.04272238
0.04265072
0.04253966
0.04239067
0.04220578
0.04198755
0.04173901
0.04146357
0.04116496
0.04084715
0.04051424
0.04017037
0.03981966
0.03946608
0.03911343
0.03876522
0.03842464
0.03809451
0.03777724
0.03747485
0.03718892
0.03692063
0.03667074
0.03643967
0.03622750
0.03603402
0.03585876
0.03570107
0.03556011
0.03543494
0.03532454
0.03522785
0.03514382
0.03507142
0.03500966
0.03495764
0.03491456
0.03487975
0.03485266
0.03483288
0.03482018
0.03481448
0.03481592
0.03482482
0.03484174
0.03486751
0.03490327
0.03495053
0.00000000
0.00000000
0.04401654
0.04403807
0.04405009
0.04405318
0.04404785
0.04403458
0.04401384
0.04398614
0.04395201
0.04391198
0.04386659
0.04381637
0.04376178
0.04370324
0.04364111
0.04357563
0.04350697
0.04343522
0.04336036
0.04328229
0.04320084
0.04311577
0.04302680
0.04293358
0.04283576
0.04273296
0.04262481
0.04251090
0.04239088
0.04226437
0.04213107
0.04199066
0.04184287
0.04168751
0.04152439
0.04135342
0.04117456
0.04098788
0.04079351
0.04059170
0.04038284
0.04016741
0.03994605
0.03971954
0.03948883
0.03925499
0.03901928
0.03878309
0.03854799
0.03831565
0.03808788
0.03786663
0.03765388
0.03745172
0.03726227
0.03708764
0.03692994
0.03679123
0.03667346
0.03657847
0.03650796
0.03646344
0.03644617
0.03645720
0.03649728
0.03656685
0.03666605
0.03679463
0.03695201
0.03713723
0.03734895
0.03758543
0.03784457
0.03812390
0.03842060
0.03873151
0.03905317
0.03938188
0.03971369
0.04004450
0.04037008
0.04068615
0.04098843
0.04127274
0.04153503
0.04177148
0.04197856
0.04215311
0.04229240
0.04239420
0.04245679
0.04247907
0.04246054
0.04240130
0.04230213
0.04216439
0.04199003
0.04178157
0.04154200
0.04127472
0.04098350
0.04067232
0.04034537
0.04000686
0.03966101
0.03931191
0.03896344
0.03861923
0.03828258
0.03795642
0.03764323
0.03734512
0.03706371
0.03680021
0.03655542
0.03632975
0.03612325
0.03593568
0.03576652
0.03561505
0.03548035
0.03536141
0.03525713
0.03516637
0.03508798
0.03502086
0.03496398
0.03491636
0.03487718
0.03484572
0.03482145
0.03480397
0.03479310
0.03478885
0.03479146
0.03480140
0.03481941
0.03484652
0.03488405
0.03493364
0.00000000
0.00000000
0.04406245
0.04408208
0.04409226
0.04409355
0.04408646
0.04407150
0.04404921
0.04402013
0.04398485
0.04394394
0.04389798
0.04384751
0.04379300
0.04373489
0.04367351
0.04360909
0.04354177
0.04347158
0.04339848
0.04332231
0.04324283
0.04315975
0.04307271
0.04298130
0.04288508
0.04278361
0.04267641
0.04256303
0.04244300
0.04231588
0.04218126
0.04203874
0.04188799
0.04172870
0.04156062
0.04138359
0.04119750
0.04100237
0.04079829
0.04058550
0.04036435
0.04013536
0.03989917
0.03965664
0.03940875
0.03915667
0.03890177
0.03864554
0.03838968
0.03813599
0.03788645
0.03764312
0.03740817
0.03718382
0.03697232
0.03677595
0.03659694
0.03643746
0.03629960
0.03618531
0.03609637
0.03603438
0.03600069
0.03599641
0.03602236
0.03607904
0.03616662
0.03628494
0.03643343
0.03661119
0.03681689
0.03704886
0.03730500
0.03758288
0.03787968
0.03819227
0.03851719
0.03885072
0.03918891
0.03952761
0.03986255
0.04018939
0.04050378
0.04080141
0.04107813
0.04132998
0.04155330
0.04174474
0.04190142
0.04202089
0.04210128
0.04214127
0.04214019
0.04209797
0.04201520
0.04189313
0.04173358
0.04153896
0.04131220
0.04105668
0.04077613
0.04047458
0.04015625
0.03982544
0.03948644
0.03914346
0.03880051
0.03846134
0.03812939
0.03780769
0.03749887
0.03720511
0.03692814
0.03666924
0.03642926
0.03620862
0.03600741
0.03582536
0.03566192
0.03551632
0.03538761
0.03527468
0.03517637
0.03509145
0.03501870
0.03495695
0.03490508
0.03486207
0.03482703
0.03479923
0.03477808
0.03476323
0.03475449
0.03475193
0.03475585
0.03476683
0.03478573
0.03481368
0.03485211
0.03490270
0.00000000
0.00000000
0.04411843
0.04413537
0.04414303
0.04414194
0.04413261
0.04411557
0.04409138
0.04406064
0.04402394
0.04398191
0.04393513
0.04388417
0.04382950
0.04377155
0.04371062
0.04364694
0.04358060
0.04351159
0.04343981
0.04336502
0.04328695
0.04320520
0.04311934
0.04302888
0.04293330
0.04283205
0.04272457
0.04261029
0.04248867
0.04235915
0.04222122
0.04207440
0.04191824
0.04175236
0.04157643
0.04139020
0.04119353
0.04098638
0.04076882
0.04054108
0.04030353
0.04005671
0.03980136
0.03953837
0.03926885
0.03899409
0.03871556
0.03843492
0.03815402
0.03787484
0.03759949
0.03733023
0.03706937
0.03681930
0.03658243
0.03636117
0.03615789
0.03597489
0.03581437
0.03567836
0.03556877
0.03548725
0.03543524
0.03541393
0.03542417
0.03546655
0.03554129
0.03564826
0.03578697
0.03595654
0.03615571
0.03638284
0.03663589
0.03691245
0.03720975
0.03752468
0.03785379
0.03819339
0.03853951
0.03888797
0.03923449
0.03957464
0.03990401
0.04021819
0.04051290
0.04078405
0.04102778
0.04124059
0.04141936
0.04156146
0.04166475
0.04172771
0.04174941
0.04172958
0.04166859
0.04156748
0.04142790
0.04125213
0.04104297
0.04080371
0.04053806
0.04025003
0.03994386
0.03962390
0.03929454
0.03896009
0.03862469
0.03829223
0.03796628
0.03765004
0.03734627
0.03705730
0.03678497
0.03653067
0.03629534
0.03607946
0.03588316
0.03570620
0.03554803
0.03540785
0.03528467
0.03517736
0.03508466
0.03500530
0.03493798
0.03488145
0.03483451
0.03479609
0.03476524
0.03474118
0.03472329
0.03471119
0.03470470
0.03470391
0.03470916
0.03472107
0.03474054
0.03476880
0.03480728
0.03485766
0.00000000
0.00000000
0.04418427
0.04419779
0.04420228
0.04419827
0.04418625
0.04416675
0.04414036
0.04410767
0.04406932
0.04402593
0.04397811
0.04392642
0.04387133
0.04381325
0.04375247
0.04368916
0.04362338
0.04355506
0.04348403
0.04341000
0.04333259
0.04325133
0.04316570
0.04307511
0.04297893
0.04287651
0.04276718
0.04265025
0.04252507
0.04239097
0.04224733
0.04209356
0.04192911
0.04175350
0.04156633
0.04136730
0.04115621
0.04093299
0.04069771
0.04045063
0.04019216
0.03992291
0.03964369
0.03935554
0.03905967
0.03875754
0.03845077
0.03814122
0.03783088
0.03752193
0.03721668
0.03691755
0.03662702
0.03634765
0.03608200
0.03583263
0.03560203
0.03539262
0.03520671
0.03504643
0.03491376
0.03481044
0.03473799
0.03469765
0.03469036
0.03471675
0.03477710
0.03487135
0.03499906
0.03515942
0.03535124
0.03557291
0.03582248
0.03609759
0.03639552
0.03671320
0.03704724
0.03739395
0.03774939
0.03810938
0.03846959
0.03882558
0.03917283
0.03950687
0.03982327
0.04011779
0.04038640
0.04062537
0.04083137
0.04100149
0.04113336
0.04122516
0.04127567
0.04128434
0.04125128
0.04117725
0.04106370
0.04091268
0.04072682
0.04050929
0.04026369
0.03999399
0.03970441
0.03939935
0.03908324
0.03876051
0.03843541