# vtk DataFile Version 3.0
particle point data
ASCII
DATASET STRUCTURED_GRID
DIMENSIONS 143 143 2
POINTS 40898 double
0.00000000 0.00000000 0.00000000
0.00714286 0.00000000 0.00000000
0.01428571 0.00000000 0.00000000
0.02142857 0.00000000 0.00000000
0.02857143 0.00000000 0.00000000
0.03571429 0.00000000 0.00000000
0.04285714 0.00000000 0.00000000
0.05000000 0.00000000 0.00000000
0.05714286 0.00000000 0.00000000
0.06428571 0.00000000 0.00000000
0.07142857 0.00000000 0.00000000
0.07857143 0.00000000 0.00000000
0.08571429 0.00000000 0.00000000
0.09285714 0.00000000 0.00000000
0.10000000 0.00000000 0.00000000
0.10714286 0.00000000 0.00000000
0.11428571 0.00000000 0.00000000
0.12142857 0.00000000 0.00000000
0.12857143 0.00000000 0.00000000
0.13571429 0.00000000 0.00000000
0.14285714 0.00000000 0.00000000
0.15000000 0.00000000 0.00000000
0.15714286 0.00000000 0.00000000
0.16428571 0.00000000 0.00000000
0.17142857 0.00000000 0.00000000
0.17857143 0.00000000 0.00000000
0.18571429 0.00000000 0.00000000
0.19285714 0.00000000 0.00000000
0.20000000 0.00000000 0.00000000
0.20714286 0.00000000 0.00000000
0.21428571 0.00000000 0.00000000
0.22142857 0.00000000 0.00000000
0.22857143 0.00000000 0.00000000
0.23571429 0.00000000 0.00000000
0.24285714 0.00000000 0.00000000
0.25000000 0.00000000 0.00000000
0.25714286 0.00000000 0.00000000
0.26428571 0.00000000 0.00000000
0.27142857 0.00000000 0.00000000
0.27857143 0.00000000 0.00000000
0.28571429 0.00000000 0.00000000
0.29285714 0.00000000 0.00000000
0.30000000 0.00000000 0.00000000
0.30714286 0.00000000 0.00000000
0.31428571 0.00000000 0.00000000
0.32142857 0.00000000 0.00000000
0.32857143 0.00000000 0.00000000
0.33571429 0.00000000 0.00000000
0.34285714 0.00000000 0.00000000
0.35000000 0.00000000 0.00000000
0.35714286 0.00000000 0.00000000
0.36428571 0.00000000 0.00000000
0.37142857 0.00000000 0.00000000
0.37857143 0.00000000 0.00000000
0.38571429 0.00000000 0.00000000
0.39285714 0.00000000 0.00000000
0.40000000 0.00000000 0.00000000
0.40714286 0.00000000 0.00000000
0.41428571 0.00000000 0.00000000
0.42142857 0.00000000 0.00000000
0.42857143 0.00000000 0.00000000
0.43571429 0.00000000 0.00000000
0.44285714 0.00000000 0.00000000
0.45000000 0.00000000 0.00000000
0.45714286 0.00000000 0.00000000
0.46428571 0.00000000 0.00000000
0.47142857 0.00000000 0.00000000
0.47857143 0.00000000 0.00000000
0.48571429 0.00000000 0.00000000
0.49285714 0.00000000 0.00000000
0.50000000 0.00000000 0.00000000
0.50714286 0.00000000 0.00000000
0.51428571 0.00000000 0.00000000
0.52142857 0.00000000 0.00000000
0.52857143 0.00000000 0.00000000
0.53571429 0.00000000 0.00000000
0.54285714 0.00000000 0.00000000
0.55000000 0.00000000 0.00000000
0.55714286 0.00000000 0.00000000
0.56428571 0.00000000 0.00000000
0.57142857 0.00000000 0.00000000
0.57857143 0.00000000 0.00000000
0.58571429 0.00000000 0.00000000
0.59285714 0.00000000 0.00000000
0.60000000 0.00000000 0.00000000
0.60714286 0.00000000 0.00000000
0.61428571 0.00000000 0.00000000
0.62142857 0.00000000 0.00000000
0.62857143 0.00000000 0.00000000
0.63571429 0.00000000 0.00000000
0.64285714 0.00000000 0.00000000
0.65000000 0.00000000 0.00000000
0.65714286 0.00000000 0.00000000
0.66428571 0.00000000 0.00000000
0.67142857 0.00000000 0.00000000
0.67857143 0.00000000 0.00000000
0.68571429 0.00000000 0.00000000
0.69285714 0.00000000 0.00000000
0.70000000 0.00000000 0.00000000
0.70714286 0.00000000 0.00000000
0.71428571 0.00000000 0.00000000
0.72142857 0.00000000 0.00000000
0.72857143 0.00000000 0.00000000
0.73571429 0.00000000 0.00000000
0.74285714 0.00000000 0.00000000
0.75000000 0.00000000 0.00000000
0.75714286 0.00000000 0.00000000
0.76428571 0.00000000 0.00000000
0.77142857 0.00000000 0.00000000
0.77857143 0.00000000 0.00000000
0.78571429 0.00000000 0.00000000
0.79285714 0.00000000 0.00000000
0.80000000 0.00000000 0.00000000
0.80714286 0.00000000 0.00000000
0.81428571 0.00000000 0.00000000
0.82142857 0.00000000 0.00000000
0.82857143 0.00000000 0.00000000
0.83571429 0.00000000 0.00000000
0.84285714 0.00000000 0.00000000
0.85000000 0.00000000 0.00000000
0.85714286 0.00000000 0.00000000
0.86428571 0.00000000 0.00000000
0.87142857 0.00000000 0.00000000
0.87857143 0.00000000 0.00000000
0.88571429 0.00000000 0.00000000
0.89285714 0.00000000 0.00000000
0.90000000 0.00000000 0.00000000
0.90714286 0.00000000 0.00000000
0.91428571 0.00000000 0.00000000
0.92142857 0.00000000 0.00000000
0.92857143 0.00000000 0.00000000
0.93571429 0.00000000 0.00000000
0.94285714 0.00000000 0.00000000
0.95000000 0.00000000 0.00000000
0.95714286 0.00000000 0.00000000
0.96428571 0.00000000 0.00000000
0.97142857 0.00000000 0.00000000
0.97857143 0.00000000 0.00000000
0.98571429 0.00000000 0.00000000
0.99285714 0.00000000 0.00000000
1.00000000 0.00000000 0.00000000
1.00714286 0.00000000 0.00000000
1.01428571 0.00000000 0.00000000
0.00000000 0.00714286 0.00000000
0.00714286 0.00714286 0.00000000
0.01428571 0.00714286 0.00000000
0.02142857 0.00714286 0.00000000
0.02857143 0.00714286 0.00000000
0.03571429 0.00714286 0.00000000
0.04285714 0.00714286 0.00000000
0.05000000 0.00714286 0.00000000
0.05714286 0.00714286 0.00000000
0.06428571 0.00714286 0.00000000
0.07142857 0.00714286 0.00000000
0.07857143 0.00714286 0.00000000
0.08571429 0.00714286 0.00000000
0.09285714 0.00714286 0.00000000
0.10000000 0.00714286 0.00000000
0.10714286 0.00714286 0.00000000
0.11428571 0.00714286 0.00000000
0.12142857 0.00714286 0.00000000
0.12857143 0.00714286 0.00000000
0.13571429 0.00714286 0.00000000
0.14285714 0.00714286 0.00000000
0.15000000 0.00714286 0.00000000
0.15714286 0.00714286 0.00000000
0.16428571 0.00714286 0.00000000
0.17142857 0.00714286 0.00000000
0.17857143 0.00714286 0.00000000
0.18571429 0.00714286 0.00000000
0.19285714 0.00714286 0.00000000
0.20000000 0.00714286 0.00000000
0.20714286 0.00714286 0.00000000
0.21428571 0.00714286 0.00000000
0.22142857 0.00714286 0.00000000
0.22857143 0.00714286 0.00000000
0.23571429 0.00714286 0.00000000
0.24285714 0.00714286 0.00000000
0.25000000 0.00714286 0.00000000
0.25714286 0.00714286 0.00000000
0.26428571 0.00714286 0.00000000
0.27142857 0.00714286 0.00000000
0.27857143 0.00714286 0.00000000
0.28571429 0.00714286 0.00000000
0.29285714 0.00714286 0.00000000
0.30000000 0.00714286 0.00000000
0.30714286 0.00714286 0.00000000
0.31428571 0.00714286 0.00000000
0.32142857 0.00714286 0.00000000
0.32857143 0.00714286 0.00000000
0.33571429 0.00714286 0.00000000
0.34285714 0.00714286 0.00000000
0.35000000 0.00714286 0.00000000
0.35714286 0.00714286 0.00000000
0.36428571 0.00714286 0.00000000
0.37142857 0.00714286 0.00000000
0.37857143 0.00714286 0.00000000
0.38571429 0.00714286 0.00000000
0.39285714 0.00714286 0.00000000
0.40000000 0.00714286 0.00000000
0.40714286 0.00714286 0.00000000
0.41428571 0.00714286 0.00000000
0.42142857 0.00714286 0.00000000
0.42857143 0.00714286 0.00000000
0.43571429 0.00714286 0.00000000
0.44285714 0.00714286 0.00000000
0.45000000 0.00714286 0.00000000
0.45714286 0.00714286 0.00000000
0.46428571 0.00714286 0.00000000
0.47142857 0.00714286 0.00000000
0.47857143 0.00714286 0.00000000
0.48571429 0.00714286 0.00000000
0.49285714 0.00714286 0.00000000
0.50000000 0.00714286 0.00000000
0.50714286 0.00714286 0.00000000
0.51428571 0.00714286 0.00000000
0.52142857 0.00714286 0.00000000
0.52857143 0.00714286 0.00000000
0.53571429 0.00714286 0.00000000
0.54285714 0.00714286 0.00000000
0.55000000 0.00714286 0.00000000
0.55714286 0.00714286 0.00000000
0.56428571 0.00714286 0.00000000
0.57142857 0.00714286 0.00000000
0.57857143 0.00714286 0.00000000
0.58571429 0.00714286 0.00000000
0.59285714 0.00714286 0.00000000
0.60000000 0.00714286 0.00000000
0.60714286 0.00714286 0.00000000
0.61428571 0.00714286 0.00000000
0.62142857 0.00714286 0.00000000
0.62857143 0.00714286 0.00000000
0.63571429 0.00714286 0.00000000
0.64285714 0.00714286 0.00000000
0.65000000 0.00714286 0.00000000
0.65714286 0.00714286 0.00000000
0.66428571 0.00714286 0.00000000
0.67142857 0.00714286 0.00000000
0.67857143 0.00714286 0.00000000
0.68571429 0.00714286 0.00000000
0.69285714 0.00714286 0.00000000
0.70000000 0.00714286 0.00000000
0.70714286 0.00714286 0.00000000
0.71428571 0.00714286 0.00000000
0.72142857 0.00714286 0.00000000
0.72857143 0.00714286 0.00000000
0.73571429 0.00714286 0.00000000
0.74285714 0.00714286 0.00000000
0.75000000 0.00714286 0.00000000
0.75714286 0.00714286 0.00000000
0.76428571 0.00714286 0.00000000
0.77142857 0.00714286 0.00000000
0.77857143 0.00714286 0.00000000
0.78571429 0.00714286 0.00000000
0.79285714 0.00714286 0.00000000
0.80000000 0.00714286 0.00000000
0.80714286 0.00714286 0.00000000
0.81428571 0.00714286 0.00000000
0.82142857 0.00714286 0.00000000
0.82857143 0.00714286 0.00000000
0.83571429 0.00714286 0.00000000
0.84285714 0.00714286 0.00000000
0.85000000 0.00714286 0.00000000
0.85714286 0.00714286 0.00000000
0.86428571 0.00714286 0.00000000
0.87142857 0.00714286 0.00000000
0.87857143 0.00714286 0.00000000
0.88571429 0.00714286 0.00000000
0.89285714 0.00714286 0.00000000
0.90000000 0.00714286 0.00000000
0.90714286 0.00714286 0.00000000
0.91428571 0.00714286 0.00000000
0.92142857 0.00714286 0.00000000
0.92857143 0.00714286 0.00000000
0.93571429 0.00714286 0.00000000
0.94285714 0.00714286 0.00000000
0.95000000 0.00714286 0.00000000
0.95714286 0.00714286 0.00000000
0.96428571 0.00714286 0.00000000
0.97142857 0.00714286 0.00000000
0.97857143 0.00714286 0.00000000
0.98571429 0.00714286 0.00000000
0.99285714 0.00714286 0.00000000
1.00000000 0.00714286 0.00000000
1.00714286 0.00714286 0.00000000
1.01428571 0.00714286 0.00000000
0.00000000 0.01428571 0.00000000
0.00714286 0.01428571 0.00000000
0.01428571 0.01428571 0.00000000
0.02142857 0.01428571 0.00000000
0.02857143 0.01428571 0.00000000
0.03571429 0.01428571 0.00000000
0.04285714 0.01428571 0.00000000
0.05000000 0.01428571 0.00000000
0.05714286 0.01428571 0.00000000
0.06428571 0.01428571 0.00000000
0.07142857 0.01428571 0.00000000
0.07857143 0.01428571 0.00000000
0.08571429 0.01428571 0.00000000
[...]
CELL_DATA 20164
SCALARS pressure double 
 LOOKUP_TABLE default
0.00000000
0.00000000
0.00000000
0.00000000
0.00000000
0.00000000
0.00000000
0.00000000
0.00000000
0.00000000
0.00000000
0.00000000
0.00000000
0.00000000
0.00000000
0.00000000
0.00000000
0.00000000
0.00000000
0.00000000
0.00000000
0.00000000
0.00000000
0.00000000
0.00000000
0.00000000
0.00000000
0.00000000
0.00000000
0.00000000
0.00000000
0.00000000
0.00000000
0.00000000
0.00000000
0.00000000
0.00000000
0.00000000
0.00000000
0.00000000
0.00000000
0.00000000
0.00000000
0.00000000
0.00000000
0.00000000
0.00000000
0.00000000
0.00000000
0.00000000
0.00000000
0.00000000
0.00000000
0.00000000
0.00000000
0.00000000
0.00000000
0.00000000
0.00000000
0.00000000
0.00000000
0.00000000
0.00000000
0.00000000
0.00000000
0.00000000
0.00000000
0.00000000
0.00000000
0.00000000
0.00000000
0.00000000
0.00000000
0.00000000
0.00000000
0.00000000
0.00000000
0.00000000
0.00000000
0.00000000
0.00000000
0.00000000
0.00000000
0.00000000
0.00000000
0.00000000
0.00000000
0.00000000
0.00000000
0.00000000
0.00000000
0.00000000
0.00000000
0.00000000
0.00000000
0.00000000
0.00000000
0.00000000
0.00000000
0.00000000
0.00000000
0.00000000
0.00000000
0.00000000
0.00000000
0.00000000
0.00000000
0.00000000
0.00000000
0.00000000
0.00000000
0.00000000
0.00000000
0.00000000
0.00000000
0.00000000
0.00000000
0.00000000
0.00000000
0.00000000
0.00000000
0.00000000
0.00000000
0.00000000
0.00000000
0.00000000
0.00000000
0.00000000
0.00000000
0.00000000
0.00000000
0.00000000
0.00000000
0.00000000
0.00000000
0.00000000
0.00000000
0.00000000
0.00000000
0.00000000
0.00000000
0.00000000
0.00000000
0.04366095
0.04367060
0.04368292
0.04369200
0.04369435
0.04368809
0.04367241
0.04364716
0.04361258
0.04356915
0.04351750
0.04345830
0.04339225
0.04331999
0.04324210
0.04315907
0.04307131
0.04297911
0.04288267
0.04278209
0.04267737
0.04256846
0.04245522
0.04233749
0.04221506
0.04208771
0.04195522
0.04181739
0.04167405
0.04152505
0.04137030
0.04120976
0.04104345
0.04087145
0.04069394
0.04051115
0.04032341
0.04013111
0.03993476
0.03973494
0.03953235
0.03932778
0.03912210
0.03891631
0.03871150
0.03850887
0.03830971
0.03811539
0.03792740
0.03774728
0.03757663
0.03741713
0.03727046
0.03713835
0.03702250
0.03692460
0.03684630
0.03678915
0.03675463
0.03674406
0.03675862
0.03679931
0.03686690
0.03696192
0.03708466
0.03723508
0.03741287
0.03761736
0.03784755
0.03810209
0.03837926
0.03867701
0.03899292
0.03932423
0.03966787
0.04002048
0.04037845
0.04073794
0.04109492
0.04144528
0.04178481
0.04210933
0.04241469
0.04269691
0.04295218
0.04317698
0.04336811
0.04352279
0.04363868
0.04371393
0.04374727
0.04373796
0.04368588
0.04359149
0.04345585
0.04328058
0.04306782
0.04282023
0.04254086
0.04223315
0.04190082
0.04154783
0.04117823
0.04079616
0.04040572
0.04001090
0.03961554
0.03922322
0.03883728
0.03846070
0.03809612
0.03774582
0.03741169
0.03709524
0.03679760
0.03651957
0.03626161
0.03602388
0.03580628
0.03560849
0.03543001
0.03527016
0.03512819
0.03500325
0.03489449
0.03480105
0.03472208
0.03465683
0.03460459
0.03456475
0.03453676
0.03452013
0.03451433
0.03451872
0.03453236
0.03455379
0.03458067
0.03460925
0.03463391
0.03464700
0.00000000
0.00000000
0.04365131
0.04366096
0.04367013
0.04367562
0.04367506
0.04366695
0.04365050
0.04362546
0.04359191
0.04355019
0.04350078
0.04344421
0.04338107
0.04331190
0.04323721
0.04315743
0.04307292
0.04298395
0.04289070
0.04279327
0.04269166
0.04258584
0.04247569
0.04236106
0.04224179
0.04211767
0.04198850
0.04185412
0.04171435
0.04156906
0.04141818
0.04126165
0.04109951
0.04093183
0.04075875
0.04058051
0.04039740
0.04020980
0.04001817
0.03982308
0.03962518
0.03942520
0.03922400
0.03902252
0.03882180
0.03862299
0.03842734
0.03823616
0.03805089
0.03787301
0.03770408
0.03754573
0.03739959
0.03726735
0.03715066
0.03705120
0.03697056
0.03691028
0.03687181
0.03685647
0.03686543
0.03689968
0.03696000
0.03704695
0.03716083
0.03730164
0.03746910
0.03766259
0.03788117
0.03812355
0.03838809
0.03867279
0.03897532
0.03929303
0.03962294
0.03996178
0.04030604
0.04065200
0.04099574
0.04133326
0.04166046
0.04197327
0.04226765
0.04253972
0.04278579
0.04300241
0.04318648
0.04333529
0.04344655
0.04351849
0.04354986
0.04353996
0.04348866
0.04339643
0.04326430
0.04309383
0.04288714
0.04264678
0.04237573
0.04207733
0.04175519
0.04141312
0.04105506
0.04068500
0.04030690
0.03992461
0.03954181
0.03916196
0.03878826
0.03842357
0.03807043
0.03773100
0.03740709
0.03710016
0.03681127
0.03654120
0.03629037
0.03605895
0.03584684
0.03565375
0.03547919
0.03532254
0.03518308
0.03506001
0.03495251
0.03485977
0.03478096
0.03471533
0.03466219
0.03462088
0.03459080
0.03457138
0.03456200
0.03456192
0.03457014
0.03458525
0.03460519
0.03462707
0.03464694
0.03466010
0.00000000
0.00000000
0.04363895
0.04365179
0.04366099
0.04366522
0.04366322
0.04365401
0.04363704
0.04361210
0.04357926
0.04353878
0.04349107
0.04343658
0.04337580
0.04330924
0.04323732
0.04316044
0.04307892
0.04299300
0.04290284
0.04280853
0.04271007
0.04260743
0.04250050
0.04238914
0.04227319
0.04215246
0.04202676
0.04189594
0.04175982
0.04161829
0.04147124
0.04131865
0.04116052
0.04099692
0.04082797
0.04065387
0.04047490
0.04029140
0.04010380
0.03991264
0.03971850
0.03952211
0.03932425
0.03912584
0.03892786
0.03873142
0.03853772
0.03834804
0.03816376
0.03798633
0.03781728
0.03765820
0.03751070
0.03737644
0.03725707
0.03715424
0.03706955
0.03700453
0.03696064
0.03693922
0.03694146
0.03696837
0.03702078
0.03709927
0.03720418
0.03733557
0.03749321
0.03767654
0.03788467
0.03811638
0.03837010
0.03864389
0.03893550
0.03924233
0.03956149
0.03988977
0.04022373
0.04055971
0.04089387
0.04122226
0.04154085
0.04184562
0.04213259
0.04239793
0.04263797
0.04284932
0.04302891
0.04317406
0.04328251
0.04335250
0.04338279
0.04337269
0.04332208
0.04323141
0.04310170
0.04293451
0.04273192
0.04249645
0.04223105
0.04193901
0.04162389
0.04128944
0.04093954
0.04057810
0.04020899
0.03983599
0.03946269
0.03909247
0.03872842
0.03837332
0.03802961
0.03769938
0.03738436
0.03708592
0.03680509
0.03654255
0.03629871
0.03607369
0.03586738
0.03567946
0.03550945
0.03535671
0.03522055
0.03510019
0.03499480
0.03490357
0.03482571
0.03476046
0.03470710
0.03466498
0.03463347
0.03461196
0.03459984
0.03459638
0.03460071
0.03461166
0.03462769
0.03464683
0.03466669
0.03468479
0.00000000
0.00000000
0.04362972
0.04364624
0.04365672
0.04366092
0.04365836
0.04364857
0.04363125
0.04360634
0.04357395
0.04353434
0.04348789
0.04343501
0.04337615
0.04331177
0.04324226
0.04316798
0.04308921
0.04300617
0.04291900
0.04282777
0.04273248
0.04263307
0.04252944
0.04242145
0.04230892
0.04219168
0.04206953
0.04194231
0.04180985
0.04167201
0.04152870
0.04137987
0.04122549
0.04106561
0.04090035
0.04072986
0.04055438
0.04037423
0.04018980
0.04000157
0.03981010
0.03961605
0.03942019
0.03922336
0.03902652
0.03883074
0.03863718
0.03844708
0.03826180
0.03808277
0.03791149
0.03774955
0.03759855
0.03746015
0.03733602
0.03722781
0.03713715
0.03706561
0.03701467
0.03698570
0.03697996
0.03699850
0.03704219
0.03711169
0.03720739
0.03732941
0.03747758
0.03765139
0.03785004
0.03807234
0.03831679
0.03858152
0.03886432
0.03916264
0.03947364
0.03979415
0.04012078
0.04044989
0.04077767
0.04110019
0.04141345
0.04171343
0.04199618
0.04225784
0.04249476
0.04270355
0.04288114
0.04302481
0.04313231
0.04320187
0.04323223
0.04322269
0.04317312
0.04308398
0.04295626
0.04279152
0.04259184
0.04235975
0.04209818
0.04181042
0.04150001
0.04117072
0.04082640
0.04047094
0.04010819
0.03974190
0.03937563
0.03901270
0.03865615
0.03830870
0.03797274
0.03765028
0.03734298
0.03705215
0.03677873
0.03652336
0.03628637
0.03606784
0.03586760
0.03568529
0.03552039
0.03537226
0.03524015
0.03512328
0.03502082
0.03493194
0.03485584
0.03479174
0.03473893
0.03469673
0.03466454
0.03464175
0.03462781
0.03462210
0.03462393
0.03463250
0.03464681
0.03466575
0.03468816
0.03471315
0.00000000
0.00000000
0.04362711
0.04364665
0.04365856
0.04366316
0.04366042
0.04365027
0.04363265
0.04360766
0.04357548
0.04353641
0.04349084
0.04343917
0.04338185
0.04331929
0.04325187
0.04317991
0.04310368
0.04302336
0.04293907
0.04285085
0.04275870
0.04266253
0.04256222
0.04245763
0.04234855
0.04223481
0.04211620
0.04199252
0.04186360
0.04172929
0.04158947
0.04144406
0.04129301
0.04113635
0.04097414
0.04080652
0.04063368
0.04045588
0.04027349
0.04008693
0.03989672
0.03970348
0.03950792
0.03931086
0.03911323
0.03891604
0.03872044
0.03852765
0.03833903
0.03815599
0.03798005
0.03781279
0.03765584
0.03751090
0.03737966
0.03726382
0.03716506
0.03708500
0.03702518
0.03698706
0.03697192
0.03698090
0.03701496
0.03707480
0.03716089
0.03727342
0.03741228
0.03757704
0.03776693
0.03798084
0.03821730
0.03847449
0.03875025
0.03904206
0.03934709
0.03966221
0.03998403
0.04030893
0.04063310
0.04095260
0.04126341
0.04156150
0.04184289
0.04210369
0.04234023
0.04254907
0.04272708
0.04287154
0.04298014
0.04305107
0.04308303
0.04307531
0.04302773
0.04294074
0.04281533
0.04265305
0.04245598
0.04222664
0.04196802
0.04168339
0.04137636
0.04105068
0.04071025
0.04035899
0.04000076
0.03963931
0.03927822
0.03892080
0.03857007
0.03822874
0.03789915
0.03758327
0.03728271
0.03699870
0.03673215
0.03648360
0.03625332
0.03604132
0.03584737
0.03567105
0.03551177
0.03536884
0.03524148
0.03512885
0.03503009
0.03494435
0.03487080
0.03480866
0.03475718
0.03471571
0.03468364
0.03466043
0.03464560
0.03463867
0.03463920
0.03464672
0.03466076
0.03468091
0.03470693
0.03473897
0.00000000
0.00000000
0.04363304
0.04365457
0.04366752
0.04367240
0.04366950
0.04365896
0.04364096
0.04361570
0.04358348
0.04354465
0.04349963
0.04344884
0.04339271
0.04333166
0.04326603
0.04319615
0.04312224
0.04304446
0.04296292
0.04287762
0.04278853
0.04269554
0.04259851
0.04249726
0.04239157
0.04228122
0.04216600
0.04204567
0.04192004
0.04178892
0.04165217
0.04150966
0.04136132
0.04120712
0.04104710
0.04088133
0.04070996
0.04053322
0.04035140
0.04016489
0.03997417
0.03977980
0.03958247
0.03938296
0.03918216
0.03898109
0.03878086
0.03858272
0.03838801
0.03819818
0.03801477
0.03783940
0.03767376
0.03751958
0.03737863
0.03725268
0.03714347
0.03705272
0.03698205
0.03693298
0.03690689
0.03690502
0.03692837
0.03697775
0.03705370
0.03715646
0.03728600
0.03744195
0.03762358
0.03782985
0.03805931
0.03831018
0.03858033
0.03886725
0.03916814
0.03947987
0.03979904
0.04012202
0.04044498
0.04076396
0.04107491
0.04137376
0.04165646
0.04191909
0.04215791
0.04236942
0.04255043
0.04269814
0.04281017
0.04288466
0.04292025
0.04291615
0.04287218
0.04278871
0.04266673
0.04250776
0.04231389
0.04208766
0.04183205
0.04155041
0.04124634
0.04092368
0.04058635
0.04023834
0.03988356
0.03952581
0.03916870
0.03881557
0.03846948
0.03813312
0.03780885
0.03749860
0.03720396
0.03692611
0.03666590
0.03642383
0.03620009
0.03599460
0.03580707
0.03563700
0.03548373
0.03534650
0.03522446
0.03511672
0.03502237
0.03494051
0.03487027
0.03481084
0.03476148
0.03472152
0.03469038
0.03466758
0.03465273
0.03464550
0.03464567
0.03465309
0.03466773
0.03468971
0.03471945
0.03475777
0.00000000
0.00000000
0.04364852
0.04367095
0.04368427
0.04368906
0.04368573
0.04367462
0.04365602
0.04363027
0.04359775
0.04355887
0.04351409
0.04346386
0.04340863
0.04334878
0.04328469
0.04321664
0.04314484
0.04306942
0.04299046
0.04290794
0.04282177
0.04273183
0.04263793
0.04253985
0.04243735
0.04233016
0.04221803
0.04210069
0.04197790
0.04184944
0.04171510
0.04157473
0.04142820
0.04127544
0.04111641
0.04095114
0.04077974
0.04060237
0.04041928
0.04023079
0.04003735
0.03983949
0.03963786
0.03943321
0.03922644
0.03901855
0.03881069
0.03860410
0.03840016
0.03820039
0.03800636
0.03781977
0.03764239
0.03747603
0.03732254
0.03718380
0.03706164
0.03695788
0.03687423
0.03681232
0.03677363
0.03675946
0.03677093
0.03680891
0.03687401
0.03696656
0.03708658
0.03723374
0.03740738
0.03760648
0.03782964
0.03807510
0.03834075
0.03862409
0.03892232
0.03923232
0.03955066
0.03987371
0.04019760
0.04051834
0.04083182
0.04113392
0.04142054
0.04168767
0.04193151
0.04214845
0.04233523
0.04248896
0.04260716
0.04268787
0.04272966
0.04273165
0.04269358
0.04261578
0.04249918
0.04234527
0.04215611
0.04193426
0.04168271
0.04140483
0.04110428
0.04078493
0.04045080
0.04010592
0.03975430
0.03939980
0.03904610
0.03869661
0.03835443
0.03802230
0.03770260
0.03739727
0.03710789
0.03683564
0.03658131
0.03634535
0.03612790
0.03592881
0.03574771
0.03558402
0.03543701
0.03530582
0.03518955
0.03508721
0.03499784
0.03492048
0.03485422
0.03479820
0.03475167
0.03471395
0.03468449
0.03466286
0.03464874
0.03464196
0.03464248
0.03465042
0.03466609
0.03469002
0.03472306
0.03476644
0.00000000
0.00000000
0.04367399
0.04369630
0.04370924
0.04371341
0.04370928
0.04369727
0.04367779
0.04365128
0.04361817
0.04357897
0.04353415
0.04348419
0.04342957
0.04337067
0.04330786
0.04324139
0.04317147
0.04309820
0.04302161
0.04294164
0.04285818
0.04277105
0.04268002
0.04258482
0.04248516
0.04238072
0.04227120
0.04215628
0.04203566
0.04190907
0.04177624
0.04163695
0.04149103
0.04133832
0.04117874
0.04101225
0.04083890
0.04065879
0.04047211
0.04027916
0.04008033
0.03987614
0.03966719
0.03945427
0.03923826
0.03902019
0.03880124
0.03858271
0.03836606
0.03815285
0.03794476
0.03774358
0.03755117
0.03736948
0.03720046
0.03704609
0.03690834
0.03678912
0.03669027
0.03661352
0.03656043
0.03653243
0.03653069
0.03655618
0.03660958
0.03669128
0.03680134
0.03693951
0.03710516
0.03729730
0.03751456
0.03775522
0.03801716
0.03829792
0.03859468
0.03890431
0.03922340
0.03954826
0.03987502
0.04019962
0.04051793
0.04082574
0.04111888
0.04139328
0.04164501
0.04187039
0.04206603
0.04222892
0.04235649
0.04244663
0.04249779
0.04250901
0.04247990
0.04241071
0.04230228
0.04215605
0.04197404
0.04175877
0.04151324
0.04124084
0.04094526
0.04063044
0.04030045
0.03995940
0.03961140
0.03926040
0.03891017
0.03856421
0.03822569
0.03789744
0.03758188
0.03728101
0.03699641
0.03672927
0.03648038
0.03625015
0.03603869
0.03584578
0.03567099
0.03551366
0.03537297
0.03524801
0.03513775
0.03504115
0.03495718
0.03488479
0.03482302
0.03477098
0.03472788
0.03469302
0.03466588
0.03464605
0.03463329
0.03462754
0.03462891
0.03463773
0.03465456
0.03468022
0.03471585
0.03476294
0.00000000
0.00000000
0.04370961
0.04373087
0.04374268
0.04374564
0.04374024
0.04372696
0.04370628
0.04367870
0.04364474
0.04360493
0.04355980
0.04350986
0.04345558
0.04339737
0.04333557
0.04327044
0.04320214
0.04313075
0.04305626
0.04297856
0.04289749
0.04281282
0.04272426
0.04263149
0.04253414
0.04243185
0.04232424
0.04221092
0.04209154
0.04196574
0.04183319
0.04169359
0.04154670
0.04139229
0.04123020
0.04106033
0.04088265
0.04069723
0.04050419
0.04030381
0.04009643
0.03988257
0.03966285
0.03943804
0.03920909
0.03897706
0.03874321
0.03850891
0.03827572
0.03804530
0.03781946
0.03760010
0.03738922
0.03718889
0.03700120
0.03682826
0.03667217
0.03653495
0.03641857
0.03632485
0.03625548
0.03621195
0.03619554
0.03620727
0.03624790
0.03631788
0.03641733
0.03654603
0.03670340
0.03688849
0.03709997
0.03733611
0.03759485
0.03787372
0.03816991
0.03848031
0.03880148
0.03912972
0.03946113
0.03979161
0.04011698
0.04043297
0.04073533
0.04101989
0.04128262
0.04151972
0.04172766
0.04190330
0.04204392
0.04214727
0.04221164
0.04223592
0.04221958
0.04216274
0.04206612
0.04193108
0.04175955
0.04155400
0.04131739
0.04105311
0.04076487
0.04045666
0.04013259
0.03979689
0.03945372
0.03910716
0.03876108
0.03841910
0.03808449
0.03776018
0.03744867
0.03715204
0.03687192
0.03660955
0.03636571
0.03614084
0.03593500
0.03574796
0.03557922
0.03542806
0.03529359
0.03517481
0.03507063
0.03497991
0.03490154
0.03483441
0.03477748
0.03472982
0.03469058
0.03465907
0.03463473
0.03461718
0.03460625
0.03460193
0.03460447
0.03461432
0.03463224
0.03465923
0.03469662
0.03474603
0.00000000
0.00000000
0.04375536
0.04377470
0.04378468
0.04378583
0.04377868
0.04376373
0.04374151
0.04371256
0.04367747
0.04363679
0.04359110
0.04354092
0.04348673
0.04342896
0.04336791
0.04330383
0.04323686
0.04316703
0.04309428
0.04301846
0.04293935
0.04285665
0.04277001
0.04267902
0.04258326
0.04248228
0.04237563
0.04226283
0.04214344
0.04201702
0.04188317
0.04174149
0.04159165
0.04143335
0.04126634
0.04109047
0.04090563
0.04071183
0.04050917
0.04029789
0.04007834
0.03985102
0.03961660
0.03937589
0.03912990
0.03887978
0.03862688
0.03837269
0.03811889
0.03786729
0.03761982
0.03737854
0.03714561
0.03692322
0.03671363
0.03651908
0.03634180
0.03618395
0.03604760
0.03593468
0.03584698
0.03578607
0.03575331
0.03574980
0.03577637
0.03583351
0.03592140
0.03603987
0.03618838
0.03636602
0.03657150
0.03680313
0.03705886
0.03733626
0.03763254
0.03794458
0.03826896
0.03860197
0.03893969
0.03927800
0.03961266
0.03993933
0.04025369
0.04055147
0.04082852
0.04108092
0.04130498
0.04149740
0.04165528
0.04177619
0.04185823
0.04190011
0.04190111
0.04186118
0.04178087
0.04166141
0.04150459
0.04131280
0.04108893
0.04083634
0.04055872
0.04026008
0.03994459
0.03961653
0.03928018
0.03893971
0.03859912
0.03826215
0.03793221
0.03761233
0.03730515
0.03701284
0.03673714
0.03647932
0.03624025
0.03602038
0.03581979
0.03563822
0.03547515
0.03532982
0.03520129
0.03508848
0.03499022
0.03490531
0.03483254
0.03477074
0.03471879
0.03467570
0.03464058
0.03461269
0.03459147
0.03457653
0.03456771
0.03456507
0.03456891
0.03457981
0.03459860
0.03462643
0.03466472
0.03471512
0.00000000
0.00000000
0.04381110
0.04382775
0.04383520
0.04383398
0.04382460
0.04380758
0.04378349
0.04375289
0.04371640
0.04367461
0.04362812
0.04357746
0.04352312
0.04346551
0.04340493
0.04334159
0.04327559
0.04320692
0.04313548
0.04306104
0.04298332
0.04290193
0.04281646
0.04272642
0.04263129
0.04253053
0.04242358
0.04230990
0.04218893
0.04206013
0.04192300
0.04177705
0.04162186
0.04145702
0.04128223
0.04109724
0.04090191
0.04069619
0.04048016
0.04025405
0.04001824
0.03977325
0.03951981
0.03925882
0.03899136
0.03871873
0.03844238
0.03816397
0.03788531
0.03760839
0.03733529
0.03706826
0.03680959
0.03656165
0.03632685
0.03610757
0.03590617
0.03572493
0.03556604
0.03543153
0.03532327
0.03524294
0.03519196
0.03517150
0.03518243
0.03522533
0.03530043
0.03540760
0.03554636
0.03571584
0.03591480
0.03614160
0.03639423
0.03667029
0.03696703
0.03728137
0.03760989
0.03794891
0.03829448
0.03864247
0.03898859
0.03932847
0.03965770
0.03997190
0.04026681
0.04053835
0.04078269
0.04099632
0.04117614
0.04131951
0.04142431
0.04148900
0.04151264
0.04149495
0.04143628
0.04133764
0.04120067
0.04102761
0.04082124
0.04058481
0.04032201
0.04003680
0.03973340
0.03941614
0.03908937
0.03875739
0.03842430
0.03809399
0.03777002
0.03745557
0.03715341
0.03686586
0.03659476
0.03634152
0.03610706
0.03589191
0.03569619
0.03551967
0.03536183
0.03522188
0.03509885
0.03499160
0.03489892
0.03481953
0.03475214
0.03469552
0.03464848
0.03460995
0.03457899
0.03455481
0.03453682
0.03452462
0.03451804
0.03451716
0.03452232
0.03453413
0.03455350
0.03458163
0.03461997
0.03467015
0.00000000
0.00000000
0.04387663
0.04388986
0.04389415
0.04389001
0.04387795
0.04385849
0.04383220
0.04379969
0.04376156
0.04371844
0.04367092
0.04361955
0.04356480
0.04350707
0.04344663
0.04338367
0.04331822
0.04325024
0.04317955
0.04310585
0.04302879
0.04294789
0.04286265
0.04277247
0.04267674
0.04257482
0.04246603
0.04234972
0.04222522
0.04209188
0.04194908
0.04179624
0.04163282
0.04145835
0.04127242
0.04107473
0.04086510
0.04064344
0.04040985
0.04016456
0.03990800
0.03964075
0.03936365
0.03907768
0.03878409
0.03848429
0.03817992
0.03787280
0.03756492
0.03725844
0.03695565
0.03665894
0.03637080
0.03609375
0.03583035
0.03558313
0.03535457
0.03514707
0.03496293
0.03480428
0.03467308
0.03457106
0.03449974
0.03446035
0.03445383
0.03448081
0.03454158
0.03463608
0.03476388
0.03492418
0.03511580
0.03533715
0.03558629
0.03586088
0.03615821
0.03647526
0.03680864
0.03715469
0.03750950
0.03786891
0.03822862
0.03858420
0.03893117
0.03926507
0.03958151
0.03987625
0.04014527
0.04038488
0.04059173
0.04076293
0.04089611
0.04098943
0.04104169
0.04105231
0.04102138
0.04094965
0.04083854
0.04069007
0.04050686
0.04029202
0.04004915
0.03978216
0.03949526
0.03919281
0.03887922
0.03855889
0.03823604