# vtk DataFile Version 3.0
particle point data
ASCII
DATASET STRUCTURED_GRID
DIMENSIONS 143 143 2
POINTS 40898 double
0.00000000 0.00000000 0.00000000
0.00714286 0.00000000 0.00000000
0.01428571 0.00000000 0.00000000
0.02142857 0.00000000 0.00000000
0.02857143 0.00000000 0.00000000
0.03571429 0.00000000 0.00000000
0.04285714 0.00000000 0.00000000
0.05000000 0.00000000 0.00000000
0.05714286 0.00000000 0.00000000
0.06428571 0.00000000 0.00000000
0.07142857 0.00000000 0.00000000
0.07857143 0.00000000 0.00000000
0.08571429 0.00000000 0.00000000
0.09285714 0.00000000 0.00000000
0.10000000 0.00000000 0.00000000
0.10714286 0.00000000 0.00000000
0.11428571 0.00000000 0.00000000
0.12142857 0.00000000 0.00000000
0.12857143 0.00000000 0.00000000
0.13571429 0.00000000 0.00000000
0.14285714 0.00000000 0.00000000
0.15000000 0.00000000 0.00000000
0.15714286 0.00000000 0.00000000
0.16428571 0.00000000 0.00000000
0.17142857 0.00000000 0.00000000
0.17857143 0.00000000 0.00000000
0.18571429 0.00000000 0.00000000
0.19285714 0.00000000 0.00000000
0.20000000 0.00000000 0.00000000
0.20714286 0.00000000 0.00000000
0.21428571 0.00000000 0.00000000
0.22142857 0.00000000 0.00000000
0.22857143 0.00000000 0.00000000
0.23571429 0.00000000 0.00000000
0.24285714 0.00000000 0.00000000
0.25000000 0.00000000 0.00000000
0.25714286 0.00000000 0.00000000
0.26428571 0.00000000 0.00000000
0.27142857 0.00000000 0.00000000
0.27857143 0.00000000 0.00000000
0.28571429 0.00000000 0.00000000
0.29285714 0.00000000 0.00000000
0.30000000 0.00000000 0.00000000
0.30714286 0.00000000 0.00000000
0.31428571 0.00000000 0.00000000
0.32142857 0.00000000 0.00000000
0.32857143 0.00000000 0.00000000
0.33571429 0.00000000 0.00000000
0.34285714 0.00000000 0.00000000
0.35000000 0.00000000 0.00000000
0.35714286 0.00000000 0.00000000
0.36428571 0.00000000 0.00000000
0.37142857 0.00000000 0.00000000
0.37857143 0.00000000 0.00000000
0.38571429 0.00000000 0.00000000
0.39285714 0.00000000 0.00000000
0.40000000 0.00000000 0.00000000
0.40714286 0.00000000 0.00000000
0.41428571 0.00000000 0.00000000
0.42142857 0.00000000 0.00000000
0.42857143 0.00000000 0.00000000
0.43571429 0.00000000 0.00000000
0.44285714 0.00000000 0.00000000
0.45000000 0.00000000 0.00000000
0.45714286 0.00000000 0.00000000
0.46428571 0.00000000 0.00000000
0.47142857 0.00000000 0.00000000
0.47857143 0.00000000 0.00000000
0.48571429 0.00000000 0.00000000
0.49285714 0.00000000 0.00000000
0.50000000 0.00000000 0.00000000
0.50714286 0.00000000 0.00000000
0.51428571 0.00000000 0.00000000
0.52142857 0.00000000 0.00000000
0.52857143 0.00000000 0.00000000
0.53571429 0.00000000 0.00000000
0.54285714 0.00000000 0.00000000
0.55000000 0.00000000 0.00000000
0.55714286 0.00000000 0.00000000
0.56428571 0.00000000 0.00000000
0.57142857 0.00000000 0.00000000
0.57857143 0.00000000 0.00000000
0.58571429 0.00000000 0.00000000
0.59285714 0.00000000 0.00000000
0.60000000 0.00000000 0.00000000
0.60714286 0.00000000 0.00000000
0.61428571 0.00000000 0.00000000
0.62142857 0.00000000 0.00000000
0.62857143 0.00000000 0.00000000
0.63571429 0.00000000 0.00000000
0.64285714 0.00000000 0.00000000
0.65000000 0.00000000 0.00000000
0.65714286 0.00000000 0.00000000
0.66428571 0.00000000 0.00000000
0.67142857 0.00000000 0.00000000
0.67857143 0.00000000 0.00000000
0.68571429 0.00000000 0.00000000
0.69285714 0.00000000 0.00000000
0.70000000 0.00000000 0.00000000
0.70714286 0.00000000 0.00000000
0.71428571 0.00000000 0.00000000
0.72142857 0.00000000 0.00000000
0.72857143 0.00000000 0.00000000
0.73571429 0.00000000 0.00000000
0.74285714 0.00000000 0.00000000
0.75000000 0.00000000 0.00000000
0.75714286 0.00000000 0.00000000
0.76428571 0.00000000 0.00000000
0.77142857 0.00000000 0.00000000
0.77857143 0.00000000 0.00000000
0.78571429 0.00000000 0.00000000
0.79285714 0.00000000 0.00000000
0.80000000 0.00000000 0.00000000
0.80714286 0.00000000 0.00000000
0.81428571 0.00000000 0.00000000
0.82142857 0.00000000 0.00000000
0.82857143 0.00000000 0.00000000
0.83571429 0.00000000 0.00000000
0.84285714 0.00000000 0.00000000
0.85000000 0.00000000 0.00000000
0.85714286 0.00000000 0.00000000
0.86428571 0.00000000 0.00000000
0.87142857 0.00000000 0.00000000
0.87857143 0.00000000 0.00000000
0.88571429 0.00000000 0.00000000
0.89285714 0.00000000 0.00000000
0.90000000 0.00000000 0.00000000
0.90714286 0.00000000 0.00000000
0.91428571 0.00000000 0.00000000
0.92142857 0.00000000 0.00000000
0.92857143 0.00000000 0.00000000
0.93571429 0.00000000 0.00000000
0.94285714 0.00000000 0.00000000
0.95000000 0.00000000 0.00000000
0.95714286 0.00000000 0.00000000
0.96428571 0.00000000 0.00000000
0.97142857 0.00000000 0.00000000
0.97857143 0.00000000 0.00000000
0.98571429 0.00000000 0.00000000
0.99285714 0.00000000 0.00000000
1.00000000 0.00000000 0.00000000
1.00714286 0.00000000 0.00000000
1.01428571 0.00000000 0.00000000
0.00000000 0.00714286 0.00000000
0.00714286 0.00714286 0.00000000
0.01428571 0.00714286 0.00000000
0.02142857 0.00714286 0.00000000
0.02857143 0.00714286 0.00000000
0.03571429 0.00714286 0.00000000
0.04285714 0.00714286 0.00000000
0.05000000 0.00714286 0.00000000
0.05714286 0.00714286 0.00000000
0.06428571 0.00714286 0.00000000
0.07142857 0.00714286 0.00000000
0.07857143 0.00714286 0.00000000
0.08571429 0.00714286 0.00000000
0.09285714 0.00714286 0.00000000
0.10000000 0.00714286 0.00000000
0.10714286 0.00714286 0.00000000
0.11428571 0.00714286 0.00000000
0.12142857 0.00714286 0.00000000
0.12857143 0.00714286 0.00000000
0.13571429 0.00714286 0.00000000
0.14285714 0.00714286 0.00000000
0.15000000 0.00714286 0.00000000
0.15714286 0.00714286 0.00000000
0.16428571 0.00714286 0.00000000
0.17142857 0.00714286 0.00000000
0.17857143 0.00714286 0.00000000
0.18571429 0.00714286 0.00000000
0.19285714 0.00714286 0.00000000
0.20000000 0.00714286 0.00000000
0.20714286 0.00714286 0.00000000
0.21428571 0.00714286 0.00000000
0.22142857 0.00714286 0.00000000
0.22857143 0.00714286 0.00000000
0.23571429 0.00714286 0.00000000
0.24285714 0.00714286 0.00000000
0.25000000 0.00714286 0.00000000
0.25714286 0.00714286 0.00000000
0.26428571 0.00714286 0.00000000
0.27142857 0.00714286 0.00000000
0.27857143 0.00714286 0.00000000
0.28571429 0.00714286 0.00000000
0.29285714 0.00714286 0.00000000
0.30000000 0.00714286 0.00000000
0.30714286 0.00714286 0.00000000
0.31428571 0.00714286 0.00000000
0.32142857 0.00714286 0.00000000
0.32857143 0.00714286 0.00000000
0.33571429 0.00714286 0.00000000
0.34285714 0.00714286 0.00000000
0.35000000 0.00714286 0.00000000
0.35714286 0.00714286 0.00000000
0.36428571 0.00714286 0.00000000
0.37142857 0.00714286 0.00000000
0.37857143 0.00714286 0.00000000
0.38571429 0.00714286 0.00000000
0.39285714 0.00714286 0.00000000
0.40000000 0.00714286 0.00000000
0.40714286 0.00714286 0.00000000
0.41428571 0.00714286 0.00000000
0.42142857 0.00714286 0.00000000
0.42857143 0.00714286 0.00000000
0.43571429 0.00714286 0.00000000
0.44285714 0.00714286 0.00000000
0.45000000 0.00714286 0.00000000
0.45714286 0.00714286 0.00000000
0.46428571 0.00714286 0.00000000
0.47142857 0.00714286 0.00000000
0.47857143 0.00714286 0.00000000
0.48571429 0.00714286 0.00000000
0.49285714 0.00714286 0.00000000
0.50000000 0.00714286 0.00000000
0.50714286 0.00714286 0.00000000
0.51428571 0.00714286 0.00000000
0.52142857 0.00714286 0.00000000
0.52857143 0.00714286 0.00000000
0.53571429 0.00714286 0.00000000
0.54285714 0.00714286 0.00000000
0.55000000 0.00714286 0.00000000
0.55714286 0.00714286 0.00000000
0.56428571 0.00714286 0.00000000
0.57142857 0.00714286 0.00000000
0.57857143 0.00714286 0.00000000
0.58571429 0.00714286 0.00000000
0.59285714 0.00714286 0.00000000
0.60000000 0.00714286 0.00000000
0.60714286 0.00714286 0.00000000
0.61428571 0.00714286 0.00000000
0.62142857 0.00714286 0.00000000
0.62857143 0.00714286 0.00000000
0.63571429 0.00714286 0.00000000
0.64285714 0.00714286 0.00000000
0.65000000 0.00714286 0.00000000
0.65714286 0.00714286 0.00000000
0.66428571 0.00714286 0.00000000
0.67142857 0.00714286 0.00000000
0.67857143 0.00714286 0.00000000
0.68571429 0.00714286 0.00000000
0.69285714 0.00714286 0.00000000
0.70000000 0.00714286 0.00000000
0.70714286 0.00714286 0.00000000
0.71428571 0.00714286 0.00000000
0.72142857 0.00714286 0.00000000
0.72857143 0.00714286 0.00000000
0.73571429 0.00714286 0.00000000
0.74285714 0.00714286 0.00000000
0.75000000 0.00714286 0.00000000
0.75714286 0.00714286 0.00000000
0.76428571 0.00714286 0.00000000
0.77142857 0.00714286 0.00000000
0.77857143 0.00714286 0.00000000
0.78571429 0.00714286 0.00000000
0.79285714 0.00714286 0.00000000
0.80000000 0.00714286 0.00000000
0.80714286 0.00714286 0.00000000
0.81428571 0.00714286 0.00000000
0.82142857 0.00714286 0.00000000
0.82857143 0.00714286 0.00000000
0.83571429 0.00714286 0.00000000
0.84285714 0.00714286 0.00000000
0.85000000 0.00714286 0.00000000
0.85714286 0.00714286 0.00000000
0.86428571 0.00714286 0.00000000
0.87142857 0.00714286 0.00000000
0.87857143 0.00714286 0.00000000
0.88571429 0.00714286 0.00000000
0.89285714 0.00714286 0.00000000
0.90000000 0.00714286 0.00000000
0.90714286 0.00714286 0.00000000
0.91428571 0.00714286 0.00000000
0.92142857 0.00714286 0.00000000
0.92857143 0.00714286 0.00000000
0.93571429 0.00714286 0.00000000
0.94285714 0.00714286 0.00000000
0.95000000 0.00714286 0.00000000
0.95714286 0.00714286 0.00000000
0.96428571 0.00714286 0.00000000
0.97142857 0.00714286 0.00000000
0.97857143 0.00714286 0.00000000
0.98571429 0.00714286 0.00000000
0.99285714 0.00714286 0.00000000
1.00000000 0.00714286 0.00000000
1.00714286 0.00714286 0.00000000
1.01428571 0.00714286 0.00000000
0.00000000 0.01428571 0.00000000
0.00714286 0.01428571 0.00000000
0.01428571 0.01428571 0.00000000
0.02142857 0.01428571 0.00000000
0.02857143 0.01428571 0.00000000
0.03571429 0.01428571 0.00000000
0.04285714 0.01428571 0.00000000
0.05000000 0.01428571 0.00000000
0.05714286 0.01428571 0.00000000
0.06428571 0.01428571 0.00000000
0.07142857 0.01428571 0.00000000
0.07857143 0.01428571 0.00000000
0.08571429 0.01428571 0.00000000
[...]
CELL_DATA 20164
SCALARS pressure double 
 LOOKUP_TABLE default
0.00000000
0.00000000
0.00000000
0.00000000
0.00000000
0.00000000
0.00000000
0.00000000
0.00000000
0.00000000
0.00000000
0.00000000
0.00000000
0.00000000
0.00000000
0.00000000
0.00000000
0.00000000
0.00000000
0.00000000
0.00000000
0.00000000
0.00000000
0.00000000
0.00000000
0.00000000
0.00000000
0.00000000
0.00000000
0.00000000
0.00000000
0.00000000
0.00000000
0.00000000
0.00000000
0.00000000
0.00000000
0.00000000
0.00000000
0.00000000
0.00000000
0.00000000
0.00000000
0.00000000
0.00000000
0.00000000
0.00000000
0.00000000
0.00000000
0.00000000
0.00000000
0.00000000
0.00000000
0.00000000
0.00000000
0.00000000
0.00000000
0.00000000
0.00000000
0.00000000
0.00000000
0.00000000
0.00000000
0.00000000
0.00000000
0.00000000
0.00000000
0.00000000
0.00000000
0.00000000
0.00000000
0.00000000
0.00000000
0.00000000
0.00000000
0.00000000
0.00000000
0.00000000
0.00000000
0.00000000
0.00000000
0.00000000
0.00000000
0.00000000
0.00000000
0.00000000
0.00000000
0.00000000
0.00000000
0.00000000
0.00000000
0.00000000
0.00000000
0.00000000
0.00000000
0.00000000
0.00000000
0.00000000
0.00000000
0.00000000
0.00000000
0.00000000
0.00000000
0.00000000
0.00000000
0.00000000
0.00000000
0.00000000
0.00000000
0.00000000
0.00000000
0.00000000
0.00000000
0.00000000
0.00000000
0.00000000
0.00000000
0.00000000
0.00000000
0.00000000
0.00000000
0.00000000
0.00000000
0.00000000
0.00000000
0.00000000
0.00000000
0.00000000
0.00000000
0.00000000
0.00000000
0.00000000
0.00000000
0.00000000
0.00000000
0.00000000
0.00000000
0.00000000
0.00000000
0.00000000
0.00000000
0.00000000
0.00000000
0.02299961
0.02299926
0.02299607
0.02299019
0.02298219
0.02297269
0.02296223
0.02295129
0.02294020
0.02292924
0.02291861
0.02290843
0.02289879
0.02288975
0.02288131
0.02287347
0.02286624
0.02285957
0.02285345
0.02284785
0.02284275
0.02283813
0.02283397
0.02283027
0.02282703
0.02282425
0.02282195
0.02282015
0.02281887
0.02281816
0.02281805
0.02281857
0.02281979
0.02282174
0.02282449
0.02282809
0.02283259
0.02283806
0.02284456
0.02285214
0.02286087
0.02287081
0.02288201
0.02289453
0.02290843
0.02292375
0.02294055
0.02295887
0.02297875
0.02300021
0.02302330
0.02304804
0.02307442
0.02310246
0.02313216
0.02316350
0.02319645
0.02323097
0.02326701
0.02330452
0.02334340
0.02338357
0.02342491
0.02346731
0.02351062
0.02355468
0.02359933
0.02364436
0.02368959
0.02373480
0.02377975
0.02382419
0.02386789
0.02391057
0.02395198
0.02399183
0.02402985
0.02406578
0.02409933
0.02413026
0.02415829
0.02418320
0.02420475
0.02422274
0.02423699
0.02424733
0.02425362
0.02425576
0.02425368
0.02424732
0.02423668
0.02422178
0.02420267
0.02417945
0.02415222
0.02412115
0.02408642
0.02404824
0.02400683
0.02396246
0.02391540
0.02386595
0.02381440
0.02376108
0.02370630
0.02365038
0.02359364
0.02353641
0.02347899
0.02342168
0.02336478
0.02330856
0.02325328
0.02319920
0.02314654
0.02309551
0.02304632
0.02299912
0.02295410
0.02291140
0.02287115
0.02283346
0.02279844
0.02276619
0.02273680
0.02271034
0.02268688
0.02266647
0.02264918
0.02263502
0.02262402
0.02261616
0.02261140
0.02260960
0.02261055
0.02261390
0.02261906
0.02262511
0.02263068
0.02263387
0.00000000
0.00000000
0.02299995
0.02299960
0.02299669
0.02299154
0.02298459
0.02297629
0.02296709
0.02295736
0.02294740
0.02293748
0.02292775
0.02291837
0.02290941
0.02290093
0.02289297
0.02288553
0.02287862
0.02287223
0.02286633
0.02286091
0.02285596
0.02285147
0.02284742
0.02284382
0.02284067
0.02283798
0.02283576
0.02283404
0.02283284
0.02283219
0.02283214
0.02283272
0.02283398
0.02283598
0.02283875
0.02284236
0.02284686
0.02285231
0.02285876
0.02286628
0.02287492
0.02288474
0.02289579
0.02290813
0.02292182
0.02293690
0.02295341
0.02297141
0.02299092
0.02301198
0.02303461
0.02305884
0.02308467
0.02311211
0.02314115
0.02317178
0.02320396
0.02323766
0.02327283
0.02330941
0.02334730
0.02338643
0.02342668
0.02346793
0.02351004
0.02355286
0.02359622
0.02363993
0.02368381
0.02372763
0.02377117
0.02381420
0.02385648
0.02389774
0.02393773
0.02397619
0.02401286
0.02404746
0.02407974
0.02410945
0.02413634
0.02416018
0.02418075
0.02419786
0.02421132
0.02422099
0.02422673
0.02422845
0.02422607
0.02421955
0.02420888
0.02419408
0.02417522
0.02415237
0.02412566
0.02409522
0.02406125
0.02402394
0.02398353
0.02394025
0.02389437
0.02384618
0.02379597
0.02374405
0.02369072
0.02363630
0.02358109
0.02352540
0.02346953
0.02341378
0.02335842
0.02330373
0.02324995
0.02319733
0.02314609
0.02309644
0.02304856
0.02300263
0.02295880
0.02291722
0.02287801
0.02284129
0.02280716
0.02277571
0.02274701
0.02272114
0.02269815
0.02267809
0.02266099
0.02264687
0.02263572
0.02262751
0.02262216
0.02261951
0.02261936
0.02262134
0.02262495
0.02262944
0.02263387
0.02263706
0.00000000
0.00000000
0.02300317
0.02300250
0.02299955
0.02299470
0.02298833
0.02298080
0.02297247
0.02296364
0.02295458
0.02294549
0.02293654
0.02292785
0.02291951
0.02291157
0.02290408
0.02289704
0.02289046
0.02288434
0.02287868
0.02287346
0.02286867
0.02286432
0.02286038
0.02285688
0.02285381
0.02285119
0.02284903
0.02284735
0.02284619
0.02284558
0.02284555
0.02284614
0.02284740
0.02284938
0.02285213
0.02285569
0.02286013
0.02286549
0.02287185
0.02287924
0.02288773
0.02289737
0.02290823
0.02292034
0.02293376
0.02294855
0.02296473
0.02298236
0.02300147
0.02302209
0.02304425
0.02306796
0.02309324
0.02312008
0.02314848
0.02317842
0.02320988
0.02324281
0.02327717
0.02331288
0.02334988
0.02338807
0.02342734
0.02346758
0.02350864
0.02355038
0.02359264
0.02363522
0.02367795
0.02372060
0.02376297
0.02380482
0.02384592
0.02388601
0.02392485
0.02396218
0.02399774
0.02403127
0.02406253
0.02409126
0.02411723
0.02414021
0.02416000
0.02417639
0.02418923
0.02419836
0.02420365
0.02420502
0.02420238
0.02419571
0.02418499
0.02417025
0.02415155
0.02412897
0.02410262
0.02407266
0.02403926
0.02400261
0.02396294
0.02392049
0.02387553
0.02382832
0.02377916
0.02372834
0.02367616
0.02362293
0.02356895
0.02351451
0.02345992
0.02340544
0.02335137
0.02329795
0.02324543
0.02319406
0.02314403
0.02309556
0.02304882
0.02300399
0.02296122
0.02292063
0.02288236
0.02284651
0.02281317
0.02278243
0.02275436
0.02272902
0.02270646
0.02268670
0.02266979
0.02265571
0.02264445
0.02263597
0.02263017
0.02262692
0.02262601
0.02262715
0.02262993
0.02263385
0.02263829
0.02264264
0.00000000
0.00000000
0.02300916
0.02300768
0.02300432
0.02299939
0.02299322
0.02298611
0.02297833
0.02297014
0.02296175
0.02295333
0.02294503
0.02293694
0.02292915
0.02292171
0.02291465
0.02290799
0.02290175
0.02289591
0.02289049
0.02288547
0.02288085
0.02287663
0.02287281
0.02286939
0.02286639
0.02286382
0.02286169
0.02286004
0.02285889
0.02285826
0.02285821
0.02285877
0.02285998
0.02286189
0.02286455
0.02286802
0.02287234
0.02287756
0.02288376
0.02289097
0.02289925
0.02290866
0.02291926
0.02293109
0.02294420
0.02295864
0.02297445
0.02299168
0.02301036
0.02303052
0.02305218
0.02307536
0.02310007
0.02312632
0.02315409
0.02318337
0.02321413
0.02324634
0.02327994
0.02331487
0.02335106
0.02338840
0.02342681
0.02346616
0.02350632
0.02354714
0.02358845
0.02363009
0.02367186
0.02371355
0.02375496
0.02379586
0.02383601
0.02387517
0.02391310
0.02394953
0.02398423
0.02401693
0.02404739
0.02407537
0.02410063
0.02412295
0.02414214
0.02415799
0.02417034
0.02417905
0.02418399
0.02418507
0.02418223
0.02417542
0.02416464
0.02414992
0.02413130
0.02410889
0.02408278
0.02405314
0.02402013
0.02398394
0.02394480
0.02390295
0.02385865
0.02381216
0.02376378
0.02371378
0.02366248
0.02361016
0.02355712
0.02350366
0.02345006
0.02339661
0.02334356
0.02329118
0.02323970
0.02318936
0.02314035
0.02309288
0.02304712
0.02300324
0.02296138
0.02292166
0.02288421
0.02284913
0.02281650
0.02278640
0.02275889
0.02273403
0.02271186
0.02269239
0.02267565
0.02266164
0.02265032
0.02264166
0.02263557
0.02263193
0.02263058
0.02263129
0.02263377
0.02263772
0.02264279
0.02264873
0.00000000
0.00000000
0.02301743
0.02301476
0.02301064
0.02300532
0.02299906
0.02299207
0.02298460
0.02297682
0.02296891
0.02296100
0.02295322
0.02294564
0.02293833
0.02293133
0.02292468
0.02291838
0.02291246
0.02290690
0.02290171
0.02289689
0.02289243
0.02288834
0.02288462
0.02288128
0.02287833
0.02287579
0.02287367
0.02287201
0.02287082
0.02287015
0.02287004
0.02287051
0.02287162
0.02287342
0.02287595
0.02287925
0.02288340
0.02288843
0.02289440
0.02290137
0.02290939
0.02291852
0.02292880
0.02294029
0.02295304
0.02296709
0.02298249
0.02299928
0.02301749
0.02303715
0.02305829
0.02308093
0.02310507
0.02313072
0.02315787
0.02318651
0.02321661
0.02324813
0.02328103
0.02331524
0.02335069
0.02338729
0.02342494
0.02346352
0.02350290
0.02354294
0.02358347
0.02362433
0.02366532
0.02370624
0.02374689
0.02378704
0.02382646
0.02386492
0.02390215
0.02393792
0.02397198
0.02400407
0.02403395
0.02406139
0.02408614
0.02410800
0.02412675
0.02414221
0.02415422
0.02416262
0.02416731
0.02416818
0.02416517
0.02415824
0.02414740
0.02413266
0.02411408
0.02409174
0.02406577
0.02403631
0.02400353
0.02396763
0.02392883
0.02388736
0.02384349
0.02379749
0.02374962
0.02370020
0.02364950
0.02359783
0.02354548
0.02349274
0.02343990
0.02338721
0.02333496
0.02328339
0.02323274
0.02318322
0.02313505
0.02308840
0.02304346
0.02300038
0.02295929
0.02292033
0.02288360
0.02284919
0.02281718
0.02278765
0.02276065
0.02273622
0.02271440
0.02269521
0.02267865
0.02266473
0.02265342
0.02264467
0.02263842
0.02263457
0.02263302
0.02263359
0.02263612
0.02264044
0.02264640
0.02265396
0.00000000
0.00000000
0.02302740
0.02302327
0.02301815
0.02301220
0.02300560
0.02299852
0.02299113
0.02298357
0.02297598
0.02296845
0.02296108
0.02295392
0.02294702
0.02294042
0.02293413
0.02292817
0.02292254
0.02291724
0.02291227
0.02290764
0.02290333
0.02289936
0.02289573
0.02289245
0.02288953
0.02288699
0.02288485
0.02288314
0.02288189
0.02288114
0.02288091
0.02288126
0.02288222
0.02288385
0.02288619
0.02288928
0.02289319
0.02289797
0.02290366
0.02291034
0.02291803
0.02292681
0.02293673
0.02294783
0.02296016
0.02297377
0.02298871
0.02300502
0.02302273
0.02304186
0.02306246
0.02308453
0.02310809
0.02313314
0.02315968
0.02318769
0.02321715
0.02324803
0.02328027
0.02331382
0.02334860
0.02338453
0.02342151
0.02345943
0.02349816
0.02353754
0.02357744
0.02361767
0.02365805
0.02369839
0.02373846
0.02377806
0.02381695
0.02385490
0.02389165
0.02392697
0.02396060
0.02399229
0.02402180
0.02404889
0.02407332
0.02409489
0.02411337
0.02412860
0.02414039
0.02414861
0.02415314
0.02415387
0.02415075
0.02414373
0.02413282
0.02411804
0.02409945
0.02407713
0.02405120
0.02402180
0.02398912
0.02395335
0.02391471
0.02387344
0.02382980
0.02378405
0.02373649
0.02368740
0.02363708
0.02358582
0.02353392
0.02348166
0.02342932
0.02337719
0.02332551
0.02327454
0.02322450
0.02317563
0.02312810
0.02308212
0.02303784
0.02299541
0.02295498
0.02291665
0.02288052
0.02284669
0.02281523
0.02278620
0.02275965
0.02273562
0.02271413
0.02269520
0.02267883
0.02266503
0.02265376
0.02264500
0.02263871
0.02263480
0.02263322
0.02263386
0.02263664
0.02264150
0.02264840
0.02265743
0.00000000
0.00000000
0.02303851
0.02303279
0.02302649
0.02301972
0.02301259
0.02300524
0.02299776
0.02299028
0.02298287
0.02297560
0.02296853
0.02296171
0.02295516
0.02294889
0.02294293
0.02293727
0.02293191
0.02292685
0.02292209
0.02291762
0.02291345
0.02290958
0.02290602
0.02290277
0.02289986
0.02289729
0.02289510
0.02289332
0.02289197
0.02289108
0.02289071
0.02289088
0.02289164
0.02289304
0.02289514
0.02289796
0.02290158
0.02290605
0.02291141
0.02291772
0.02292504
0.02293341
0.02294290
0.02295356
0.02296542
0.02297855
0.02299298
0.02300876
0.02302593
0.02304451
0.02306453
0.02308601
0.02310898
0.02313342
0.02315935
0.02318674
0.02321558
0.02324584
0.02327746
0.02331040
0.02334457
0.02337991
0.02341631
0.02345366
0.02349184
0.02353070
0.02357008
0.02360983
0.02364975
0.02368966
0.02372933
0.02376856
0.02380710
0.02384473
0.02388120
0.02391626
0.02394966
0.02398115
0.02401048
0.02403741
0.02406170
0.02408315
0.02410153
0.02411667
0.02412838
0.02413653
0.02414099
0.02414166
0.02413848
0.02413142
0.02412046
0.02410563
0.02408700
0.02406464
0.02403867
0.02400925
0.02397656
0.02394078
0.02390215
0.02386090
0.02381731
0.02377164
0.02372417
0.02367521
0.02362505
0.02357398
0.02352230
0.02347030
0.02341827
0.02336646
0.02331515
0.02326458
0.02321497
0.02316655
0.02311951
0.02307402
0.02303026
0.02298835
0.02294844
0.02291063
0.02287501
0.02284168
0.02281068
0.02278209
0.02275593
0.02273225
0.02271106
0.02269238
0.02267621
0.02266255
0.02265138
0.02264268
0.02263641
0.02263256
0.02263106
0.02263189
0.02263502
0.02264046
0.02264825
0.02265853
0.00000000
0.00000000
0.02305029
0.02304288
0.02303529
0.02302756
0.02301978
0.02301201
0.02300433
0.02299679
0.02298944
0.02298233
0.02297549
0.02296893
0.02296266
0.02295668
0.02295100
0.02294560
0.02294048
0.02293563
0.02293105
0.02292673
0.02292267
0.02291887
0.02291535
0.02291212
0.02290918
0.02290656
0.02290429
0.02290239
0.02290089
0.02289984
0.02289926
0.02289921
0.02289972
0.02290085
0.02290264
0.02290515
0.02290842
0.02291251
0.02291748
0.02292337
0.02293025
0.02293816
0.02294717
0.02295732
0.02296867
0.02298125
0.02299513
0.02301034
0.02302692
0.02304491
0.02306432
0.02308520
0.02310754
0.02313137
0.02315668
0.02318346
0.02321169
0.02324134
0.02327238
0.02330474
0.02333836
0.02337317
0.02340906
0.02344592
0.02348364
0.02352208
0.02356108
0.02360047
0.02364007
0.02367969
0.02371912
0.02375814
0.02379651
0.02383400
0.02387037
0.02390535
0.02393870
0.02397017
0.02399950
0.02402646
0.02405079
0.02407228
0.02409072
0.02410591
0.02411767
0.02412587
0.02413037
0.02413107
0.02412791
0.02412084
0.02410986
0.02409499
0.02407630
0.02405387
0.02402782
0.02399830
0.02396549
0.02392960
0.02389085
0.02384949
0.02380578
0.02376001
0.02371247
0.02366345
0.02361325
0.02356217
0.02351052
0.02345858
0.02340664
0.02335497
0.02330383
0.02325347
0.02320412
0.02315598
0.02310925
0.02306412
0.02302072
0.02297921
0.02293969
0.02290229
0.02286709
0.02283415
0.02280355
0.02277532
0.02274951
0.02272614
0.02270523
0.02268679
0.02267081
0.02265731
0.02264626
0.02263766
0.02263149
0.02262775
0.02262641
0.02262749
0.02263101
0.02263701
0.02264559
0.02265690
0.00000000
0.00000000
0.02306229
0.02305315
0.02304419
0.02303543
0.02302689
0.02301860
0.02301060
0.02300291
0.02299555
0.02298851
0.02298181
0.02297545
0.02296940
0.02296366
0.02295821
0.02295303
0.02294812
0.02294345
0.02293902
0.02293482
0.02293084
0.02292710
0.02292359
0.02292033
0.02291734
0.02291463
0.02291224
0.02291018
0.02290850
0.02290723
0.02290641
0.02290608
0.02290629
0.02290709
0.02290853
0.02291065
0.02291352
0.02291718
0.02292169
0.02292711
0.02293349
0.02294088
0.02294935
0.02295894
0.02296971
0.02298170
0.02299498
0.02300957
0.02302552
0.02304287
0.02306165
0.02308188
0.02310358
0.02312677
0.02315145
0.02317761
0.02320523
0.02323430
0.02326477
0.02329659
0.02332969
0.02336401
0.02339945
0.02343591
0.02347325
0.02351136
0.02355007
0.02358922
0.02362862
0.02366809
0.02370742
0.02374637
0.02378473
0.02382225
0.02385867
0.02389376
0.02392724
0.02395886
0.02398837
0.02401552
0.02404006
0.02406176
0.02408041
0.02409580
0.02410775
0.02411612
0.02412077
0.02412159
0.02411852
0.02411151
0.02410056
0.02408568
0.02406694
0.02404442
0.02401825
0.02398858
0.02395559
0.02391950
0.02388052
0.02383893
0.02379498
0.02374897
0.02370119
0.02365194
0.02360153
0.02355027
0.02349846
0.02344639
0.02339437
0.02334265
0.02329151
0.02324119
0.02319191
0.02314390
0.02309734
0.02305240
0.02300923
0.02296798
0.02292876
0.02289166
0.02285677
0.02282415
0.02279386
0.02276594
0.02274042
0.02271732
0.02269666
0.02267843
0.02266264
0.02264930
0.02263839
0.02262992
0.02262389
0.02262029
0.02261916
0.02262051
0.02262440
0.02263091
0.02264016
0.02265230
0.00000000
0.00000000
0.02307411
0.02306323
0.02305287
0.02304301
0.02303365
0.02302477
0.02301638
0.02300846
0.02300100
0.02299397
0.02298736
0.02298112
0.02297525
0.02296969
0.02296443
0.02295944
0.02295469
0.02295017
0.02294586
0.02294174
0.02293782
0.02293409
0.02293057
0.02292725
0.02292417
0.02292134
0.02291878
0.02291653
0.02291462
0.02291308
0.02291197
0.02291132
0.02291118
0.02291159
0.02291262
0.02291431
0.02291671
0.02291988
0.02292388
0.02292875
0.02293457
0.02294139
0.02294925
0.02295823
0.02296836
0.02297971
0.02299232
0.02300624
0.02302152
0.02303819
0.02305628
0.02307583
0.02309687
0.02311939
0.02314342
0.02316894
0.02319596
0.02322444
0.02325434
0.02328564
0.02331826
0.02335213
0.02338716
0.02342326
0.02346030
0.02349815
0.02353665
0.02357566
0.02361497
0.02365441
0.02369375
0.02373278
0.02377127
0.02380896
0.02384560
0.02388095
0.02391473
0.02394667
0.02397653
0.02400404
0.02402895
0.02405102
0.02407003
0.02408578
0.02409807
0.02410674
0.02411166
0.02411272
0.02410983
0.02410296
0.02409209
0.02407725
0.02405848
0.02403589
0.02400959
0.02397974
0.02394653
0.02391017
0.02387089
0.02382897
0.02378467
0.02373829
0.02369013
0.02364052
0.02358975
0.02353814
0.02348601
0.02343366
0.02338138
0.02332945
0.02327814
0.02322769
0.02317834
0.02313030
0.02308375
0.02303887
0.02299581
0.02295470
0.02291565
0.02287875
0.02284407
0.02281169
0.02278164
0.02275396
0.02272868
0.02270581
0.02268535
0.02266732
0.02265171
0.02263852
0.02262776
0.02261944
0.02261355
0.02261012
0.02260919
0.02261081
0.02261504
0.02262199
0.02263179
0.02264459
0.00000000
0.00000000
0.02308539
0.02307278
0.02306100
0.02305001
0.02303978
0.02303026
0.02302143
0.02301322
0.02300561
0.02299853
0.02299194
0.02298580
0.02298004
0.02297462
0.02296951
0.02296466
0.02296005
0.02295563
0.02295140
0.02294733
0.02294343
0.02293969
0.02293611
0.02293270
0.02292949
0.02292649
0.02292373
0.02292124
0.02291905
0.02291721
0.02291575
0.02291473
0.02291418
0.02291416
0.02291472
0.02291591
0.02291778
0.02292041
0.02292383
0.02292811
0.02293331
0.02293948
0.02294668
0.02295498
0.02296442
0.02297506
0.02298695
0.02300015
0.02301470
0.02303063
0.02304800
0.02306683
0.02308715
0.02310898
0.02313232
0.02315719
0.02318357
0.02321145
0.02324079
0.02327156
0.02330370
0.02333715
0.02337180
0.02340758
0.02344436
0.02348201
0.02352039
0.02355932
0.02359864
0.02363814
0.02367761
0.02371683
0.02375557
0.02379357
0.02383058
0.02386633
0.02390056
0.02393299
0.02396336
0.02399139
0.02401684
0.02403945
0.02405899
0.02407525
0.02408802
0.02409714
0.02410247
0.02410388
0.02410130
0.02409466
0.02408396
0.02406922
0.02405048
0.02402785
0.02400144
0.02397141
0.02393796
0.02390129
0.02386167
0.02381934
0.02377461
0.02372777
0.02367914
0.02362903
0.02357777
0.02352568
0.02347309
0.02342030
0.02336761
0.02331532
0.02326368
0.02321296
0.02316339
0.02311517
0.02306850
0.02302355
0.02298047
0.02293938
0.02290039
0.02286359
0.02282904
0.02279680
0.02276692
0.02273942
0.02271432
0.02269162
0.02267134
0.02265347
0.02263802
0.02262498
0.02261436
0.02260617
0.02260043
0.02259717
0.02259643
0.02259829
0.02260282
0.02261014
0.02262038
0.02263368
0.00000000
0.00000000
0.02309580
0.02308146
0.02306826
0.02305613
0.02304500
0.02303482
0.02302550
0.02301697
0.02300916
0.02300199
0.02299538
0.02298928
0.02298359
0.02297828
0.02297327
0.02296853
0.02296400
0.02295965
0.02295547
0.02295141
0.02294749
0.02294369
0.02294002
0.02293648
0.02293310
0.02292989
0.02292688
0.02292411
0.02292160
0.02291940
0.02291755
0.02291610
0.02291509
0.02291458
0.02291461
0.02291525
0.02291655
0.02291856
0.02292135
0.02292497
0.02292948
0.02293495
0.02294143
0.02294898
0.02295766
0.02296753
0.02297865
0.02299106
0.02300482
0.02301997
0.02303655
0.02305461
0.02307416
0.02309524
0.02311786
0.02314203
0.02316775
0.02319500
0.02322376
0.02325399
0.02328565
0.02331866
0.02335295
0.02338842
0.02342497
0.02346246
0.02350075
0.02353967
0.02357905
0.02361869
0.02365838
0.02369790
0.02373700
0.02377543
0.02381293
0.02384922
0.02388405
0.02391711
0.02394815
0.02397687
0.02400303
0.02402634
0.02404658
0.02406352
0.02407694
0.02408667
0.02409256
0.02409447
0.02409232
0.02408605
0.02407563
0.02406109
0.02404246
0.02401985
0.02399338
0.02396321
0.02392952
0.02389256
0.02385256
0.02380980
0.02376458
0.02371721
0.02366801
0.02361731
0.02356546
0.02351277
0.02345959