# vtk DataFile Version 3.0
particle point data
ASCII
DATASET STRUCTURED_GRID
DIMENSIONS 143 143 2
POINTS 40898 double
0.00000000 0.00000000 0.00000000
0.00714286 0.00000000 0.00000000
0.01428571 0.00000000 0.00000000
0.02142857 0.00000000 0.00000000
0.02857143 0.00000000 0.00000000
0.03571429 0.00000000 0.00000000
0.04285714 0.00000000 0.00000000
0.05000000 0.00000000 0.00000000
0.05714286 0.00000000 0.00000000
0.06428571 0.00000000 0.00000000
0.07142857 0.00000000 0.00000000
0.07857143 0.00000000 0.00000000
0.08571429 0.00000000 0.00000000
0.09285714 0.00000000 0.00000000
0.10000000 0.00000000 0.00000000
0.10714286 0.00000000 0.00000000
0.11428571 0.00000000 0.00000000
0.12142857 0.00000000 0.00000000
0.12857143 0.00000000 0.00000000
0.13571429 0.00000000 0.00000000
0.14285714 0.00000000 0.00000000
0.15000000 0.00000000 0.00000000
0.15714286 0.00000000 0.00000000
0.16428571 0.00000000 0.00000000
0.17142857 0.00000000 0.00000000
0.17857143 0.00000000 0.00000000
0.18571429 0.00000000 0.00000000
0.19285714 0.00000000 0.00000000
0.20000000 0.00000000 0.00000000
0.20714286 0.00000000 0.00000000
0.21428571 0.00000000 0.00000000
0.22142857 0.00000000 0.00000000
0.22857143 0.00000000 0.00000000
0.23571429 0.00000000 0.00000000
0.24285714 0.00000000 0.00000000
0.25000000 0.00000000 0.00000000
0.25714286 0.00000000 0.00000000
0.26428571 0.00000000 0.00000000
0.27142857 0.00000000 0.00000000
0.27857143 0.00000000 0.00000000
0.28571429 0.00000000 0.00000000
0.29285714 0.00000000 0.00000000
0.30000000 0.00000000 0.00000000
0.30714286 0.00000000 0.00000000
0.31428571 0.00000000 0.00000000
0.32142857 0.00000000 0.00000000
0.32857143 0.00000000 0.00000000
0.33571429 0.00000000 0.00000000
0.34285714 0.00000000 0.00000000
0.35000000 0.00000000 0.00000000
0.35714286 0.00000000 0.00000000
0.36428571 0.00000000 0.00000000
0.37142857 0.00000000 0.00000000
0.37857143 0.00000000 0.00000000
0.38571429 0.00000000 0.00000000
0.39285714 0.00000000 0.00000000
0.40000000 0.00000000 0.00000000
0.40714286 0.00000000 0.00000000
0.41428571 0.00000000 0.00000000
0.42142857 0.00000000 0.00000000
0.42857143 0.00000000 0.00000000
0.43571429 0.00000000 0.00000000
0.44285714 0.00000000 0.00000000
0.45000000 0.00000000 0.00000000
0.45714286 0.00000000 0.00000000
0.46428571 0.00000000 0.00000000
0.47142857 0.00000000 0.00000000
0.47857143 0.00000000 0.00000000
0.48571429 0.00000000 0.00000000
0.49285714 0.00000000 0.00000000
0.50000000 0.00000000 0.00000000
0.50714286 0.00000000 0.00000000
0.51428571 0.00000000 0.00000000
0.52142857 0.00000000 0.00000000
0.52857143 0.00000000 0.00000000
0.53571429 0.00000000 0.00000000
0.54285714 0.00000000 0.00000000
0.55000000 0.00000000 0.00000000
0.55714286 0.00000000 0.00000000
0.56428571 0.00000000 0.00000000
0.57142857 0.00000000 0.00000000
0.57857143 0.00000000 0.00000000
0.58571429 0.00000000 0.00000000
0.59285714 0.00000000 0.00000000
0.60000000 0.00000000 0.00000000
0.60714286 0.00000000 0.00000000
0.61428571 0.00000000 0.00000000
0.62142857 0.00000000 0.00000000
0.62857143 0.00000000 0.00000000
0.63571429 0.00000000 0.00000000
0.64285714 0.00000000 0.00000000
0.65000000 0.00000000 0.00000000
0.65714286 0.00000000 0.00000000
0.66428571 0.00000000 0.00000000
0.67142857 0.00000000 0.00000000
0.67857143 0.00000000 0.00000000
0.68571429 0.00000000 0.00000000
0.69285714 0.00000000 0.00000000
0.70000000 0.00000000 0.00000000
0.70714286 0.00000000 0.00000000
0.71428571 0.00000000 0.00000000
0.72142857 0.00000000 0.00000000
0.72857143 0.00000000 0.00000000
0.73571429 0.00000000 0.00000000
0.74285714 0.00000000 0.00000000
0.75000000 0.00000000 0.00000000
0.75714286 0.00000000 0.00000000
0.76428571 0.00000000 0.00000000
0.77142857 0.00000000 0.00000000
0.77857143 0.00000000 0.00000000
0.78571429 0.00000000 0.00000000
0.79285714 0.00000000 0.00000000
0.80000000 0.00000000 0.00000000
0.80714286 0.00000000 0.00000000
0.81428571 0.00000000 0.00000000
0.82142857 0.00000000 0.00000000
0.82857143 0.00000000 0.00000000
0.83571429 0.00000000 0.00000000
0.84285714 0.00000000 0.00000000
0.85000000 0.00000000 0.00000000
0.85714286 0.00000000 0.00000000
0.86428571 0.00000000 0.00000000
0.87142857 0.00000000 0.00000000
0.87857143 0.00000000 0.00000000
0.88571429 0.00000000 0.00000000
0.89285714 0.00000000 0.00000000
0.90000000 0.00000000 0.00000000
0.90714286 0.00000000 0.00000000
0.91428571 0.00000000 0.00000000
0.92142857 0.00000000 0.00000000
0.92857143 0.00000000 0.00000000
0.93571429 0.00000000 0.00000000
0.94285714 0.00000000 0.00000000
0.95000000 0.00000000 0.00000000
0.95714286 0.00000000 0.00000000
0.96428571 0.00000000 0.00000000
0.97142857 0.00000000 0.00000000
0.97857143 0.00000000 0.00000000
0.98571429 0.00000000 0.00000000
0.99285714 0.00000000 0.00000000
1.00000000 0.00000000 0.00000000
1.00714286 0.00000000 0.00000000
1.01428571 0.00000000 0.00000000
0.00000000 0.00714286 0.00000000
0.00714286 0.00714286 0.00000000
0.01428571 0.00714286 0.00000000
0.02142857 0.00714286 0.00000000
0.02857143 0.00714286 0.00000000
0.03571429 0.00714286 0.00000000
0.04285714 0.00714286 0.00000000
0.05000000 0.00714286 0.00000000
0.05714286 0.00714286 0.00000000
0.06428571 0.00714286 0.00000000
0.07142857 0.00714286 0.00000000
0.07857143 0.00714286 0.00000000
0.08571429 0.00714286 0.00000000
0.09285714 0.00714286 0.00000000
0.10000000 0.00714286 0.00000000
0.10714286 0.00714286 0.00000000
0.11428571 0.00714286 0.00000000
0.12142857 0.00714286 0.00000000
0.12857143 0.00714286 0.00000000
0.13571429 0.00714286 0.00000000
0.14285714 0.00714286 0.00000000
0.15000000 0.00714286 0.00000000
0.15714286 0.00714286 0.00000000
0.16428571 0.00714286 0.00000000
0.17142857 0.00714286 0.00000000
0.17857143 0.00714286 0.00000000
0.18571429 0.00714286 0.00000000
0.19285714 0.00714286 0.00000000
0.20000000 0.00714286 0.00000000
0.20714286 0.00714286 0.00000000
0.21428571 0.00714286 0.00000000
0.22142857 0.00714286 0.00000000
0.22857143 0.00714286 0.00000000
0.23571429 0.00714286 0.00000000
0.24285714 0.00714286 0.00000000
0.25000000 0.00714286 0.00000000
0.25714286 0.00714286 0.00000000
0.26428571 0.00714286 0.00000000
0.27142857 0.00714286 0.00000000
0.27857143 0.00714286 0.00000000
0.28571429 0.00714286 0.00000000
0.29285714 0.00714286 0.00000000
0.30000000 0.00714286 0.00000000
0.30714286 0.00714286 0.00000000
0.31428571 0.00714286 0.00000000
0.32142857 0.00714286 0.00000000
0.32857143 0.00714286 0.00000000
0.33571429 0.00714286 0.00000000
0.34285714 0.00714286 0.00000000
0.35000000 0.00714286 0.00000000
0.35714286 0.00714286 0.00000000
0.36428571 0.00714286 0.00000000
0.37142857 0.00714286 0.00000000
0.37857143 0.00714286 0.00000000
0.38571429 0.00714286 0.00000000
0.39285714 0.00714286 0.00000000
0.40000000 0.00714286 0.00000000
0.40714286 0.00714286 0.00000000
0.41428571 0.00714286 0.00000000
0.42142857 0.00714286 0.00000000
0.42857143 0.00714286 0.00000000
0.43571429 0.00714286 0.00000000
0.44285714 0.00714286 0.00000000
0.45000000 0.00714286 0.00000000
0.45714286 0.00714286 0.00000000
0.46428571 0.00714286 0.00000000
0.47142857 0.00714286 0.00000000
0.47857143 0.00714286 0.00000000
0.48571429 0.00714286 0.00000000
0.49285714 0.00714286 0.00000000
0.50000000 0.00714286 0.00000000
0.50714286 0.00714286 0.00000000
0.51428571 0.00714286 0.00000000
0.52142857 0.00714286 0.00000000
0.52857143 0.00714286 0.00000000
0.53571429 0.00714286 0.00000000
0.54285714 0.00714286 0.00000000
0.55000000 0.00714286 0.00000000
0.55714286 0.00714286 0.00000000
0.56428571 0.00714286 0.00000000
0.57142857 0.00714286 0.00000000
0.57857143 0.00714286 0.00000000
0.58571429 0.00714286 0.00000000
0.59285714 0.00714286 0.00000000
0.60000000 0.00714286 0.00000000
0.60714286 0.00714286 0.00000000
0.61428571 0.00714286 0.00000000
0.62142857 0.00714286 0.00000000
0.62857143 0.00714286 0.00000000
0.63571429 0.00714286 0.00000000
0.64285714 0.00714286 0.00000000
0.65000000 0.00714286 0.00000000
0.65714286 0.00714286 0.00000000
0.66428571 0.00714286 0.00000000
0.67142857 0.00714286 0.00000000
0.67857143 0.00714286 0.00000000
0.68571429 0.00714286 0.00000000
0.69285714 0.00714286 0.00000000
0.70000000 0.00714286 0.00000000
0.70714286 0.00714286 0.00000000
0.71428571 0.00714286 0.00000000
0.72142857 0.00714286 0.00000000
0.72857143 0.00714286 0.00000000
0.73571429 0.00714286 0.00000000
0.74285714 0.00714286 0.00000000
0.75000000 0.00714286 0.00000000
0.75714286 0.00714286 0.00000000
0.76428571 0.00714286 0.00000000
0.77142857 0.00714286 0.00000000
0.77857143 0.00714286 0.00000000
0.78571429 0.00714286 0.00000000
0.79285714 0.00714286 0.00000000
0.80000000 0.00714286 0.00000000
0.80714286 0.00714286 0.00000000
0.81428571 0.00714286 0.00000000
0.82142857 0.00714286 0.00000000
0.82857143 0.00714286 0.00000000
0.83571429 0.00714286 0.00000000
0.84285714 0.00714286 0.00000000
0.85000000 0.00714286 0.00000000
0.85714286 0.00714286 0.00000000
0.86428571 0.00714286 0.00000000
0.87142857 0.00714286 0.00000000
0.87857143 0.00714286 0.00000000
0.88571429 0.00714286 0.00000000
0.89285714 0.00714286 0.00000000
0.90000000 0.00714286 0.00000000
0.90714286 0.00714286 0.00000000
0.91428571 0.00714286 0.00000000
0.92142857 0.00714286 0.00000000
0.92857143 0.00714286 0.00000000
0.93571429 0.00714286 0.00000000
0.94285714 0.00714286 0.00000000
0.95000000 0.00714286 0.00000000
0.95714286 0.00714286 0.00000000
0.96428571 0.00714286 0.00000000
0.97142857 0.00714286 0.00000000
0.97857143 0.00714286 0.00000000
0.98571429 0.00714286 0.00000000
0.99285714 0.00714286 0.00000000
1.00000000 0.00714286 0.00000000
1.00714286 0.00714286 0.00000000
1.01428571 0.00714286 0.00000000
0.00000000 0.01428571 0.00000000
0.00714286 0.01428571 0.00000000
0.01428571 0.01428571 0.00000000
0.02142857 0.01428571 0.00000000
0.02857143 0.01428571 0.00000000
0.03571429 0.01428571 0.00000000
0.04285714 0.01428571 0.00000000
0.05000000 0.01428571 0.00000000
0.05714286 0.01428571 0.00000000
0.06428571 0.01428571 0.00000000
0.07142857 0.01428571 0.00000000
0.07857143 0.01428571 0.00000000
0.08571429 0.01428571 0.00000000
[...]
CELL_DATA 20164
SCALARS pressure double 
 LOOKUP_TABLE default
0.00000000
0.00000000
0.00000000
0.00000000
0.00000000
0.00000000
0.00000000
0.00000000
0.00000000
0.00000000
0.00000000
0.00000000
0.00000000
0.00000000
0.00000000
0.00000000
0.00000000
0.00000000
0.00000000
0.00000000
0.00000000
0.00000000
0.00000000
0.00000000
0.00000000
0.00000000
0.00000000
0.00000000
0.00000000
0.00000000
0.00000000
0.00000000
0.00000000
0.00000000
0.00000000
0.00000000
0.00000000
0.00000000
0.00000000
0.00000000
0.00000000
0.00000000
0.00000000
0.00000000
0.00000000
0.00000000
0.00000000
0.00000000
0.00000000
0.00000000
0.00000000
0.00000000
0.00000000
0.00000000
0.00000000
0.00000000
0.00000000
0.00000000
0.00000000
0.00000000
0.00000000
0.00000000
0.00000000
0.00000000
0.00000000
0.00000000
0.00000000
0.00000000
0.00000000
0.00000000
0.00000000
0.00000000
0.00000000
0.00000000
0.00000000
0.00000000
0.00000000
0.00000000
0.00000000
0.00000000
0.00000000
0.00000000
0.00000000
0.00000000
0.00000000
0.00000000
0.00000000
0.00000000
0.00000000
0.00000000
0.00000000
0.00000000
0.00000000
0.00000000
0.00000000
0.00000000
0.00000000
0.00000000
0.00000000
0.00000000
0.00000000
0.00000000
0.00000000
0.00000000
0.00000000
0.00000000
0.00000000
0.00000000
0.00000000
0.00000000
0.00000000
0.00000000
0.00000000
0.00000000
0.00000000
0.00000000
0.00000000
0.00000000
0.00000000
0.00000000
0.00000000
0.00000000
0.00000000
0.00000000
0.00000000
0.00000000
0.00000000
0.00000000
0.00000000
0.00000000
0.00000000
0.00000000
0.00000000
0.00000000
0.00000000
0.00000000
0.00000000
0.00000000
0.00000000
0.00000000
0.00000000
0.00000000
0.00000000
0.04288785
0.04289702
0.04290855
0.04291683
0.04291854
0.04291197
0.04289637
0.04287162
0.04283797
0.04279589
0.04274596
0.04268883
0.04262514
0.04255548
0.04248040
0.04240034
0.04231569
0.04222672
0.04213361
0.04203645
0.04193527
0.04183001
0.04172056
0.04160677
0.04148846
0.04136545
0.04123753
0.04110453
0.04096630
0.04082270
0.04067366
0.04051916
0.04035923
0.04019394
0.04002348
0.03984806
0.03966802
0.03948373
0.03929567
0.03910443
0.03891066
0.03871511
0.03851863
0.03832219
0.03812682
0.03793367
0.03774398
0.03755908
0.03738036
0.03720931
0.03704747
0.03689643
0.03675782
0.03663327
0.03652442
0.03643289
0.03636025
0.03630798
0.03627749
0.03627006
0.03628679
0.03632865
0.03639637
0.03649046
0.03661117
0.03675847
0.03693205
0.03713127
0.03735514
0.03760237
0.03787131
0.03815995
0.03846597
0.03878672
0.03911923
0.03946027
0.03980634
0.04015375
0.04049864
0.04083702
0.04116486
0.04147811
0.04177279
0.04204506
0.04229126
0.04250799
0.04269218
0.04284114
0.04295261
0.04302483
0.04305655
0.04304708
0.04299628
0.04290459
0.04277303
0.04260314
0.04239700
0.04215713
0.04188648
0.04158835
0.04126634
0.04092422
0.04056591
0.04019541
0.03981664
0.03943348
0.03904962
0.03866854
0.03829344
0.03792724
0.03757250
0.03723142
0.03690586
0.03659730
0.03630686
0.03603533
0.03578319
0.03555061
0.03533753
0.03514366
0.03496852
0.03481152
0.03467191
0.03454893
0.03444173
0.03434952
0.03427150
0.03420692
0.03415514
0.03411556
0.03408767
0.03407096
0.03406495
0.03406898
0.03408216
0.03410304
0.03412932
0.03415732
0.03418150
0.03419437
0.00000000
0.00000000
0.04287867
0.04288785
0.04289640
0.04290129
0.04290030
0.04289202
0.04287574
0.04285124
0.04281862
0.04277819
0.04273040
0.04267578
0.04261485
0.04254814
0.04247609
0.04239913
0.04231758
0.04223170
0.04214165
0.04204752
0.04194934
0.04184706
0.04174061
0.04162984
0.04151460
0.04139473
0.04127004
0.04114039
0.04100562
0.04086563
0.04072035
0.04056974
0.04041384
0.04025272
0.04008655
0.03991553
0.03973996
0.03956021
0.03937672
0.03919004
0.03900079
0.03880968
0.03861754
0.03842526
0.03823385
0.03804440
0.03785811
0.03767624
0.03750016
0.03733129
0.03717113
0.03702121
0.03688313
0.03675846
0.03664883
0.03655579
0.03648090
0.03642562
0.03639132
0.03637927
0.03639059
0.03642622
0.03648691
0.03657317
0.03668530
0.03682328
0.03698684
0.03717538
0.03738799
0.03762341
0.03788006
0.03815602
0.03844904
0.03875656
0.03907571
0.03940335
0.03973609
0.04007033
0.04040233
0.04072821
0.04104403
0.04134587
0.04162986
0.04189224
0.04212947
0.04233822
0.04251552
0.04265874
0.04276570
0.04283467
0.04286446
0.04285438
0.04280431
0.04271469
0.04258651
0.04242127
0.04222099
0.04198813
0.04172555
0.04143645
0.04112430
0.04079278
0.04044568
0.04008683
0.03972005
0.03934906
0.03897741
0.03860844
0.03824525
0.03789062
0.03754700
0.03721652
0.03690093
0.03660166
0.03631977
0.03605602
0.03581086
0.03558447
0.03537679
0.03518755
0.03501630
0.03486246
0.03472536
0.03460425
0.03449835
0.03440687
0.03432904
0.03426416
0.03421153
0.03417054
0.03414063
0.03412121
0.03411170
0.03411137
0.03411924
0.03413393
0.03415341
0.03417482
0.03419431
0.03420723
0.00000000
0.00000000
0.04286711
0.04287931
0.04288788
0.04289159
0.04288924
0.04287995
0.04286321
0.04283885
0.04280693
0.04276770
0.04272156
0.04266892
0.04261026
0.04254603
0.04247664
0.04240245
0.04232375
0.04224078
0.04215369
0.04206256
0.04196741
0.04186820
0.04176485
0.04165724
0.04154521
0.04142862
0.04130730
0.04118109
0.04104986
0.04091349
0.04077193
0.04062513
0.04047310
0.04031593
0.04015374
0.03998673
0.03981516
0.03963937
0.03945978
0.03927690
0.03909130
0.03890366
0.03871476
0.03852546
0.03833672
0.03814958
0.03796520
0.03778480
0.03760971
0.03744131
0.03728107
0.03713049
0.03699112
0.03686455
0.03675235
0.03665610
0.03657732
0.03651748
0.03647797
0.03646007
0.03646491
0.03649345
0.03654648
0.03662456
0.03672800
0.03685686
0.03701090
0.03718957
0.03739203
0.03761708
0.03786320
0.03812855
0.03841093
0.03870786
0.03901653
0.03933386
0.03965654
0.03998105
0.04030369
0.04062064
0.04092805
0.04122202
0.04149875
0.04175453
0.04198584
0.04218942
0.04236232
0.04250194
0.04260612
0.04267315
0.04270185
0.04269155
0.04264212
0.04255399
0.04242815
0.04226608
0.04206978
0.04184166
0.04158457
0.04130165
0.04099633
0.04067222
0.04033305
0.03998257
0.03962454
0.03926259
0.03890018
0.03854058
0.03818678
0.03784147
0.03750704
0.03718551
0.03687858
0.03658758
0.03631354
0.03605714
0.03581881
0.03559867
0.03539666
0.03521248
0.03504568
0.03489570
0.03476185
0.03464340
0.03453958
0.03444962
0.03437276
0.03430826
0.03425545
0.03421369
0.03418239
0.03416095
0.03414877
0.03414514
0.03414921
0.03415982
0.03417547
0.03419420
0.03421367
0.03423145
0.00000000
0.00000000
0.04285871
0.04287437
0.04288413
0.04288780
0.04288493
0.04287510
0.04285806
0.04283375
0.04280228
0.04276391
0.04271899
0.04266791
0.04261109
0.04254895
0.04248187
0.04241016
0.04233410
0.04225388
0.04216965
0.04208148
0.04198936
0.04189325
0.04179308
0.04168870
0.04157998
0.04146674
0.04134884
0.04122611
0.04109841
0.04096562
0.04082766
0.04068448
0.04053608
0.04038252
0.04022389
0.04006037
0.03989218
0.03971964
0.03954312
0.03936309
0.03918008
0.03899474
0.03880780
0.03862007
0.03843246
0.03824601
0.03806181
0.03788107
0.03770507
0.03753518
0.03737284
0.03721956
0.03707688
0.03694638
0.03682964
0.03672824
0.03664375
0.03657765
0.03653137
0.03650621
0.03650336
0.03652383
0.03656845
0.03663784
0.03673237
0.03685214
0.03699699
0.03716643
0.03735967
0.03757557
0.03781268
0.03806919
0.03834298
0.03863159
0.03893228
0.03924202
0.03955751
0.03987527
0.04019164
0.04050283
0.04080497
0.04109422
0.04136676
0.04161890
0.04184711
0.04204813
0.04221899
0.04235711
0.04246031
0.04252686
0.04255558
0.04254578
0.04249732
0.04241065
0.04228671
0.04212701
0.04193352
0.04170867
0.04145530
0.04117653
0.04087581
0.04055671
0.04022297
0.03987832
0.03952648
0.03917106
0.03881549
0.03846298
0.03811647
0.03777861
0.03745171
0.03713774
0.03683831
0.03655471
0.03628787
0.03603845
0.03580678
0.03559296
0.03539685
0.03521814
0.03505633
0.03491083
0.03478094
0.03466591
0.03456496
0.03447730
0.03440216
0.03433880
0.03428654
0.03424472
0.03421276
0.03419008
0.03417613
0.03417030
0.03417193
0.03418021
0.03419418
0.03421272
0.03423469
0.03425923
0.00000000
0.00000000
0.04285680
0.04287525
0.04288633
0.04289034
0.04288730
0.04287713
0.04285981
0.04283544
0.04280420
0.04276638
0.04272232
0.04267243
0.04261710
0.04255671
0.04249163
0.04242215
0.04234851
0.04227090
0.04218942
0.04210413
0.04201501
0.04192201
0.04182501
0.04172389
0.04161848
0.04150861
0.04139410
0.04127478
0.04115049
0.04102110
0.04088651
0.04074664
0.04060146
0.04045101
0.04029534
0.04013460
0.03996898
0.03979874
0.03962422
0.03944584
0.03926409
0.03907958
0.03889299
0.03870510
0.03851680
0.03832907
0.03814298
0.03795973
0.03778060
0.03760693
0.03744019
0.03728187
0.03713354
0.03699680
0.03687328
0.03676460
0.03667235
0.03659809
0.03654329
0.03650932
0.03649743
0.03650869
0.03654401
0.03660407
0.03668930
0.03679989
0.03693571
0.03709635
0.03728108
0.03748881
0.03771812
0.03796728
0.03823418
0.03851642
0.03881125
0.03911568
0.03942644
0.03974004
0.04005281
0.04036097
0.04066065
0.04094797
0.04121910
0.04147030
0.04169804
0.04189901
0.04207021
0.04220900
0.04231317
0.04238098
0.04241118
0.04240306
0.04235648
0.04227184
0.04215010
0.04199274
0.04180174
0.04157956
0.04132901
0.04105329
0.04075582
0.04044024
0.04011028
0.03976971
0.03942226
0.03907154
0.03872101
0.03837385
0.03803301
0.03770109
0.03738037
0.03707278
0.03677988
0.03650290
0.03624272
0.03599991
0.03577475
0.03556727
0.03537726
0.03520435
0.03504800
0.03490755
0.03478227
0.03467136
0.03457402
0.03448941
0.03441676
0.03435530
0.03430433
0.03426322
0.03423138
0.03420829
0.03419347
0.03418646
0.03418682
0.03419408
0.03420779
0.03422753
0.03425304
0.03428450
0.00000000
0.00000000
0.04286316
0.04288342
0.04289541
0.04289966
0.04289642
0.04288589
0.04286821
0.04284361
0.04281236
0.04277479
0.04273129
0.04268226
0.04262810
0.04256917
0.04250582
0.04243833
0.04236692
0.04229174
0.04221288
0.04213038
0.04204418
0.04195421
0.04186035
0.04176242
0.04166024
0.04155363
0.04144236
0.04132626
0.04120513
0.04107882
0.04094718
0.04081012
0.04066756
0.04051951
0.04036597
0.04020705
0.04004289
0.03987372
0.03969981
0.03952155
0.03933939
0.03915388
0.03896567
0.03877551
0.03858427
0.03839290
0.03820248
0.03801418
0.03782930
0.03764921
0.03747538
0.03730936
0.03715275
0.03700721
0.03687443
0.03675608
0.03665384
0.03656933
0.03650410
0.03645961
0.03643718
0.03643798
0.03646297
0.03651291
0.03658833
0.03668945
0.03681623
0.03696831
0.03714501
0.03734528
0.03756777
0.03781074
0.03807215
0.03834958
0.03864032
0.03894138
0.03924949
0.03956113
0.03987265
0.04018021
0.04047993
0.04076787
0.04104017
0.04129304
0.04152289
0.04172634
0.04190032
0.04204215
0.04214955
0.04222070
0.04225430
0.04224961
0.04220642
0.04212511
0.04200661
0.04185239
0.04166444
0.04144520
0.04119754
0.04092466
0.04063004
0.04031735
0.03999038
0.03965295
0.03930883
0.03896169
0.03861501
0.03827201
0.03793565
0.03760855
0.03729297
0.03699083
0.03670367
0.03643265
0.03617861
0.03594206
0.03572321
0.03552203
0.03533823
0.03517137
0.03502083
0.03488590
0.03476578
0.03465961
0.03456653
0.03448568
0.03441623
0.03435740
0.03430849
0.03426884
0.03423790
0.03421520
0.03420035
0.03419305
0.03419305
0.03420023
0.03421453
0.03423607
0.03426524
0.03430285
0.00000000
0.00000000
0.04287873
0.04289974
0.04291201
0.04291610
0.04291244
0.04290135
0.04288311
0.04285806
0.04282654
0.04278897
0.04274574
0.04269728
0.04264399
0.04258625
0.04252438
0.04245865
0.04238926
0.04231633
0.04223994
0.04216007
0.04207666
0.04198959
0.04189870
0.04180380
0.04170467
0.04160107
0.04149277
0.04137953
0.04126114
0.04113738
0.04100808
0.04087310
0.04073232
0.04058568
0.04043315
0.04027478
0.04011065
0.03994095
0.03976590
0.03958583
0.03940117
0.03921241
0.03902019
0.03882523
0.03862838
0.03843059
0.03823296
0.03803668
0.03784307
0.03765355
0.03746964
0.03729294
0.03712515
0.03696798
0.03682321
0.03669262
0.03657797
0.03648097
0.03640328
0.03634643
0.03631185
0.03630079
0.03631430
0.03635321
0.03641813
0.03650934
0.03662688
0.03677042
0.03693933
0.03713261
0.03734894
0.03758661
0.03784359
0.03811748
0.03840558
0.03870488
0.03901210
0.03932373
0.03963605
0.03994521
0.04024728
0.04053828
0.04081426
0.04107138
0.04130596
0.04151455
0.04169400
0.04184153
0.04195476
0.04203180
0.04207128
0.04207235
0.04203476
0.04195881
0.04184539
0.04169596
0.04151247
0.04129738
0.04105355
0.04078424
0.04049295
0.04018342
0.03985949
0.03952505
0.03918395
0.03883992
0.03849651
0.03815701
0.03782442
0.03750139
0.03719023
0.03689283
0.03661075
0.03634512
0.03609675
0.03586610
0.03565333
0.03545832
0.03528073
0.03512003
0.03497554
0.03484645
0.03473188
0.03463094
0.03454267
0.03446617
0.03440056
0.03434504
0.03429885
0.03426137
0.03423205
0.03421047
0.03419633
0.03418946
0.03418981
0.03419750
0.03421281
0.03423627
0.03426868
0.03431126
0.00000000
0.00000000
0.04290389
0.04292468
0.04293650
0.04293995
0.04293548
0.04292352
0.04290446
0.04287869
0.04284666
0.04280880
0.04276557
0.04271741
0.04266474
0.04260794
0.04254731
0.04248311
0.04241551
0.04234463
0.04227050
0.04219306
0.04211222
0.04202782
0.04193966
0.04184750
0.04175107
0.04165010
0.04154430
0.04143338
0.04131708
0.04119513
0.04106730
0.04093340
0.04079325
0.04064672
0.04049373
0.04033427
0.04016837
0.03999614
0.03981777
0.03963355
0.03944385
0.03924915
0.03905007
0.03884732
0.03864176
0.03843436
0.03822625
0.03801866
0.03781298
0.03761069
0.03741339
0.03722279
0.03704066
0.03686884
0.03670920
0.03656363
0.03643401
0.03632215
0.03622982
0.03615867
0.03611021
0.03608577
0.03608650
0.03611332
0.03616688
0.03624756
0.03635542
0.03649021
0.03665132
0.03683782
0.03704837
0.03728133
0.03753465
0.03780596
0.03809256
0.03839144
0.03869930
0.03901260
0.03932761
0.03964043
0.03994707
0.04024349
0.04052568
0.04078971
0.04103180
0.04124842
0.04143631
0.04159256
0.04171469
0.04180070
0.04184909
0.04185893
0.04182984
0.04176205
0.04165639
0.04151423
0.04133750
0.04112864
0.04089051
0.04062638
0.04033979
0.04003453
0.03971451
0.03938370
0.03904603
0.03870533
0.03836522
0.03802909
0.03770000
0.03738069
0.03707350
0.03678038
0.03650289
0.03624219
0.03599906
0.03577394
0.03556693
0.03537788
0.03520637
0.03505181
0.03491341
0.03479032
0.03468156
0.03458615
0.03450309
0.03443139
0.03437012
0.03431843
0.03427556
0.03424084
0.03421375
0.03419391
0.03418109
0.03417521
0.03417639
0.03418493
0.03420139
0.03422655
0.03426151
0.03430773
0.00000000
0.00000000
0.04293878
0.04295845
0.04296911
0.04297134
0.04296563
0.04295244
0.04293224
0.04290548
0.04287266
0.04283427
0.04279079
0.04274269
0.04269039
0.04263426
0.04257463
0.04251172
0.04244568
0.04237659
0.04230444
0.04222916
0.04215059
0.04206852
0.04198271
0.04189285
0.04179863
0.04169970
0.04159573
0.04148636
0.04137126
0.04125011
0.04112259
0.04098845
0.04084744
0.04069936
0.04054407
0.04038147
0.04021155
0.04003437
0.03985005
0.03965886
0.03946113
0.03925735
0.03904811
0.03883415
0.03861635
0.03839574
0.03817350
0.03795094
0.03772953
0.03751086
0.03729663
0.03708867
0.03688887
0.03669920
0.03652165
0.03635825
0.03621098
0.03608179
0.03597255
0.03588502
0.03582081
0.03578134
0.03576785
0.03578132
0.03582248
0.03589176
0.03598928
0.03611484
0.03626788
0.03644748
0.03665236
0.03688088
0.03713103
0.03740045
0.03768644
0.03798598
0.03829578
0.03861228
0.03893171
0.03925014
0.03956352
0.03986775
0.04015875
0.04043249
0.04068510
0.04091291
0.04111254
0.04128097
0.04141556
0.04151416
0.04157514
0.04159741
0.04158047
0.04152443
0.04142999
0.04129845
0.04113166
0.04093201
0.04070233
0.04044588
0.04016623
0.03986721
0.03955279
0.03922702
0.03889393
0.03855742
0.03822125
0.03788888
0.03756351
0.03724795
0.03694463
0.03665557
0.03638238
0.03612625
0.03588799
0.03566801
0.03546642
0.03528302
0.03511734
0.03496872
0.03483632
0.03471919
0.03461630
0.03452656
0.03444890
0.03438227
0.03432567
0.03427821
0.03423906
0.03420756
0.03418317
0.03416554
0.03415447
0.03414998
0.03415229
0.03416185
0.03417937
0.03420584
0.03424255
0.03429105
0.00000000
0.00000000
0.04298335
0.04300106
0.04300987
0.04301032
0.04300291
0.04298812
0.04296646
0.04293843
0.04290457
0.04286539
0.04282142
0.04277314
0.04272097
0.04266529
0.04260639
0.04254450
0.04247973
0.04241213
0.04234164
0.04226814
0.04219142
0.04211122
0.04202722
0.04193906
0.04184635
0.04174869
0.04164564
0.04153679
0.04142172
0.04130003
0.04117133
0.04103527
0.04089154
0.04073984
0.04057997
0.04041177
0.04023514
0.04005010
0.03985676
0.03965531
0.03944612
0.03922964
0.03900652
0.03877751
0.03854358
0.03830581
0.03806547
0.03782399
0.03758294
0.03734405
0.03710915
0.03688021
0.03665927
0.03644842
0.03624982
0.03606561
0.03589792
0.03574881
0.03562026
0.03551415
0.03543217
0.03537584
0.03534648
0.03534514
0.03537261
0.03542939
0.03551564
0.03563122
0.03577560
0.03594791
0.03614691
0.03637099
0.03661816
0.03688609
0.03717209
0.03747316
0.03778600
0.03810705
0.03843252
0.03875844
0.03908072
0.03939520
0.03969771
0.03998412
0.04025045
0.04049292
0.04070799
0.04089246
0.04104356
0.04115895
0.04123680
0.04127587
0.04127547
0.04123554
0.04115664
0.04103991
0.04088712
0.04070053
0.04048295
0.04023758
0.03996800
0.03967804
0.03937174
0.03905320
0.03872654
0.03839579
0.03806481
0.03773719
0.03741624
0.03710489
0.03680569
0.03652076
0.03625178
0.03600002
0.03576633
0.03555116
0.03535461
0.03517648
0.03501627
0.03487327
0.03474659
0.03463521
0.03453803
0.03445389
0.03438164
0.03432015
0.03426836
0.03422530
0.03419012
0.03416212
0.03414074
0.03412562
0.03411659
0.03411372
0.03411729
0.03412786
0.03414625
0.03417355
0.03421114
0.03426064
0.00000000
0.00000000
0.04303742
0.04305244
0.04305876
0.04305688
0.04304731
0.04303054
0.04300710
0.04297753
0.04294238
0.04290220
0.04285751
0.04280882
0.04275654
0.04270105
0.04264263
0.04258145
0.04251762
0.04245113
0.04238188
0.04230969
0.04223428
0.04215533
0.04207244
0.04198518
0.04189308
0.04179563
0.04169234
0.04158269
0.04146616
0.04134226
0.04121052
0.04107049
0.04092175
0.04076395
0.04059678
0.04042003
0.04023355
0.04003730
0.03983137
0.03961595
0.03939140
0.03915822
0.03891709
0.03866886
0.03841455
0.03815537
0.03789271
0.03762812
0.03736334
0.03710022
0.03684078
0.03658712
0.03634144
0.03610601
0.03588311
0.03567503
0.03548402
0.03531228
0.03516189
0.03503483
0.03493290
0.03485769
0.03481059
0.03479273
0.03480497
0.03484786
0.03492162
0.03502615
0.03516099
0.03532532
0.03551792
0.03573724
0.03598133
0.03624790
0.03653430
0.03683754
0.03715433
0.03748114
0.03781414
0.03814937
0.03848268
0.03880985
0.03912665
0.03942884
0.03971233
0.03997318
0.04020770
0.04041251
0.04058464
0.04072154
0.04082117
0.04088206
0.04090330
0.04088461
0.04082635
0.04072949
0.04059561
0.04042686
0.04022592
0.03999593
0.03974042
0.03946321
0.03916838
0.03886007
0.03854249
0.03821978
0.03789589
0.03757458
0.03725929
0.03695308
0.03665865
0.03637824
0.03611366
0.03586627
0.03563700
0.03542636
0.03523450
0.03506123
0.03490605
0.03476823
0.03464686
0.03454086
0.03444906
0.03437024
0.03430319
0.03424670
0.03419964
0.03416098
0.03412982
0.03410540
0.03408713
0.03407465
0.03406779
0.03406661
0.03407145
0.03408291
0.03410187
0.03412947
0.03416713
0.03421645
0.00000000
0.00000000
0.04310077
0.04311240
0.04311561
0.04311090
0.04309874
0.04307964
0.04305413
0.04302277
0.04298610
0.04294470
0.04289909
0.04284976
0.04279714
0.04274157
0.04268331
0.04262251
0.04255922
0.04249338
0.04242485
0.04235336
0.04227858
0.04220009
0.04211742
0.04203005
0.04193739
0.04183887
0.04173387
0.04162177
0.04150195
0.04137381
0.04123677
0.04109028
0.04093384
0.04076699
0.04058937
0.04040068
0.04020073
0.03998947
0.03976696
0.03953343
0.03928924
0.03903498
0.03877140
0.03849944
0.03822026
0.03793520
0.03764579
0.03735375
0.03706099
0.03676953
0.03648156
0.03619936
0.03592528
0.03566176
0.03541122
0.03517610
0.03495878
0.03476156
0.03458666
0.03443612
0.03431184
0.03421551
0.03414858
0.03411225
0.03410744
0.03413477
0.03419452
0.03428665
0.03441077
0.03456609
0.03475148
0.03496544
0.03520608
0.03547116
0.03575807
0.03606388
0.03638534
0.03671891
0.03706081
0.03740704
0.03775345
0.03809576
0.03842965
0.03875082
0.03905503
0.03933820
0.03959646
0.03982624
0.04002433
0.04018794
0.04031479
0.04040312
0.04045176
0.04046018
0.04042845
0.04035732
0.04024813
0.04010286
0.03992400
0.03971459
0.03947806
0.03921820
0.03893905
0.03864481
0.03833975
0.03802809
0.03771392