# vtk DataFile Version 3.0
particle point data
ASCII
DATASET STRUCTURED_GRID
DIMENSIONS 143 143 2
POINTS 40898 double
0.00000000 0.00000000 0.00000000
0.00714286 0.00000000 0.00000000
0.01428571 0.00000000 0.00000000
0.02142857 0.00000000 0.00000000
0.02857143 0.00000000 0.00000000
0.03571429 0.00000000 0.00000000
0.04285714 0.00000000 0.00000000
0.05000000 0.00000000 0.00000000
0.05714286 0.00000000 0.00000000
0.06428571 0.00000000 0.00000000
0.07142857 0.00000000 0.00000000
0.07857143 0.00000000 0.00000000
0.08571429 0.00000000 0.00000000
0.09285714 0.00000000 0.00000000
0.10000000 0.00000000 0.00000000
0.10714286 0.00000000 0.00000000
0.11428571 0.00000000 0.00000000
0.12142857 0.00000000 0.00000000
0.12857143 0.00000000 0.00000000
0.13571429 0.00000000 0.00000000
0.14285714 0.00000000 0.00000000
0.15000000 0.00000000 0.00000000
0.15714286 0.00000000 0.00000000
0.16428571 0.00000000 0.00000000
0.17142857 0.00000000 0.00000000
0.17857143 0.00000000 0.00000000
0.18571429 0.00000000 0.00000000
0.19285714 0.00000000 0.00000000
0.20000000 0.00000000 0.00000000
0.20714286 0.00000000 0.00000000
0.21428571 0.00000000 0.00000000
0.22142857 0.00000000 0.00000000
0.22857143 0.00000000 0.00000000
0.23571429 0.00000000 0.00000000
0.24285714 0.00000000 0.00000000
0.25000000 0.00000000 0.00000000
0.25714286 0.00000000 0.00000000
0.26428571 0.00000000 0.00000000
0.27142857 0.00000000 0.00000000
0.27857143 0.00000000 0.00000000
0.28571429 0.00000000 0.00000000
0.29285714 0.00000000 0.00000000
0.30000000 0.00000000 0.00000000
0.30714286 0.00000000 0.00000000
0.31428571 0.00000000 0.00000000
0.32142857 0.00000000 0.00000000
0.32857143 0.00000000 0.00000000
0.33571429 0.00000000 0.00000000
0.34285714 0.00000000 0.00000000
0.35000000 0.00000000 0.00000000
0.35714286 0.00000000 0.00000000
0.36428571 0.00000000 0.00000000
0.37142857 0.00000000 0.00000000
0.37857143 0.00000000 0.00000000
0.38571429 0.00000000 0.00000000
0.39285714 0.00000000 0.00000000
0.40000000 0.00000000 0.00000000
0.40714286 0.00000000 0.00000000
0.41428571 0.00000000 0.00000000
0.42142857 0.00000000 0.00000000
0.42857143 0.00000000 0.00000000
0.43571429 0.00000000 0.00000000
0.44285714 0.00000000 0.00000000
0.45000000 0.00000000 0.00000000
0.45714286 0.00000000 0.00000000
0.46428571 0.00000000 0.00000000
0.47142857 0.00000000 0.00000000
0.47857143 0.00000000 0.00000000
0.48571429 0.00000000 0.00000000
0.49285714 0.00000000 0.00000000
0.50000000 0.00000000 0.00000000
0.50714286 0.00000000 0.00000000
0.51428571 0.00000000 0.00000000
0.52142857 0.00000000 0.00000000
0.52857143 0.00000000 0.00000000
0.53571429 0.00000000 0.00000000
0.54285714 0.00000000 0.00000000
0.55000000 0.00000000 0.00000000
0.55714286 0.00000000 0.00000000
0.56428571 0.00000000 0.00000000
0.57142857 0.00000000 0.00000000
0.57857143 0.00000000 0.00000000
0.58571429 0.00000000 0.00000000
0.59285714 0.00000000 0.00000000
0.60000000 0.00000000 0.00000000
0.60714286 0.00000000 0.00000000
0.61428571 0.00000000 0.00000000
0.62142857 0.00000000 0.00000000
0.62857143 0.00000000 0.00000000
0.63571429 0.00000000 0.00000000
0.64285714 0.00000000 0.00000000
0.65000000 0.00000000 0.00000000
0.65714286 0.00000000 0.00000000
0.66428571 0.00000000 0.00000000
0.67142857 0.00000000 0.00000000
0.67857143 0.00000000 0.00000000
0.68571429 0.00000000 0.00000000
0.69285714 0.00000000 0.00000000
0.70000000 0.00000000 0.00000000
0.70714286 0.00000000 0.00000000
0.71428571 0.00000000 0.00000000
0.72142857 0.00000000 0.00000000
0.72857143 0.00000000 0.00000000
0.73571429 0.00000000 0.00000000
0.74285714 0.00000000 0.00000000
0.75000000 0.00000000 0.00000000
0.75714286 0.00000000 0.00000000
0.76428571 0.00000000 0.00000000
0.77142857 0.00000000 0.00000000
0.77857143 0.00000000 0.00000000
0.78571429 0.00000000 0.00000000
0.79285714 0.00000000 0.00000000
0.80000000 0.00000000 0.00000000
0.80714286 0.00000000 0.00000000
0.81428571 0.00000000 0.00000000
0.82142857 0.00000000 0.00000000
0.82857143 0.00000000 0.00000000
0.83571429 0.00000000 0.00000000
0.84285714 0.00000000 0.00000000
0.85000000 0.00000000 0.00000000
0.85714286 0.00000000 0.00000000
0.86428571 0.00000000 0.00000000
0.87142857 0.00000000 0.00000000
0.87857143 0.00000000 0.00000000
0.88571429 0.00000000 0.00000000
0.89285714 0.00000000 0.00000000
0.90000000 0.00000000 0.00000000
0.90714286 0.00000000 0.00000000
0.91428571 0.00000000 0.00000000
0.92142857 0.00000000 0.00000000
0.92857143 0.00000000 0.00000000
0.93571429 0.00000000 0.00000000
0.94285714 0.00000000 0.00000000
0.95000000 0.00000000 0.00000000
0.95714286 0.00000000 0.00000000
0.96428571 0.00000000 0.00000000
0.97142857 0.00000000 0.00000000
0.97857143 0.00000000 0.00000000
0.98571429 0.00000000 0.00000000
0.99285714 0.00000000 0.00000000
1.00000000 0.00000000 0.00000000
1.00714286 0.00000000 0.00000000
1.01428571 0.00000000 0.00000000
0.00000000 0.00714286 0.00000000
0.00714286 0.00714286 0.00000000
0.01428571 0.00714286 0.00000000
0.02142857 0.00714286 0.00000000
0.02857143 0.00714286 0.00000000
0.03571429 0.00714286 0.00000000
0.04285714 0.00714286 0.00000000
0.05000000 0.00714286 0.00000000
0.05714286 0.00714286 0.00000000
0.06428571 0.00714286 0.00000000
0.07142857 0.00714286 0.00000000
0.07857143 0.00714286 0.00000000
0.08571429 0.00714286 0.00000000
0.09285714 0.00714286 0.00000000
0.10000000 0.00714286 0.00000000
0.10714286 0.00714286 0.00000000
0.11428571 0.00714286 0.00000000
0.12142857 0.00714286 0.00000000
0.12857143 0.00714286 0.00000000
0.13571429 0.00714286 0.00000000
0.14285714 0.00714286 0.00000000
0.15000000 0.00714286 0.00000000
0.15714286 0.00714286 0.00000000
0.16428571 0.00714286 0.00000000
0.17142857 0.00714286 0.00000000
0.17857143 0.00714286 0.00000000
0.18571429 0.00714286 0.00000000
0.19285714 0.00714286 0.00000000
0.20000000 0.00714286 0.00000000
0.20714286 0.00714286 0.00000000
0.21428571 0.00714286 0.00000000
0.22142857 0.00714286 0.00000000
0.22857143 0.00714286 0.00000000
0.23571429 0.00714286 0.00000000
0.24285714 0.00714286 0.00000000
0.25000000 0.00714286 0.00000000
0.25714286 0.00714286 0.00000000
0.26428571 0.00714286 0.00000000
0.27142857 0.00714286 0.00000000
0.27857143 0.00714286 0.00000000
0.28571429 0.00714286 0.00000000
0.29285714 0.00714286 0.00000000
0.30000000 0.00714286 0.00000000
0.30714286 0.00714286 0.00000000
0.31428571 0.00714286 0.00000000
0.32142857 0.00714286 0.00000000
0.32857143 0.00714286 0.00000000
0.33571429 0.00714286 0.00000000
0.34285714 0.00714286 0.00000000
0.35000000 0.00714286 0.00000000
0.35714286 0.00714286 0.00000000
0.36428571 0.00714286 0.00000000
0.37142857 0.00714286 0.00000000
0.37857143 0.00714286 0.00000000
0.38571429 0.00714286 0.00000000
0.39285714 0.00714286 0.00000000
0.40000000 0.00714286 0.00000000
0.40714286 0.00714286 0.00000000
0.41428571 0.00714286 0.00000000
0.42142857 0.00714286 0.00000000
0.42857143 0.00714286 0.00000000
0.43571429 0.00714286 0.00000000
0.44285714 0.00714286 0.00000000
0.45000000 0.00714286 0.00000000
0.45714286 0.00714286 0.00000000
0.46428571 0.00714286 0.00000000
0.47142857 0.00714286 0.00000000
0.47857143 0.00714286 0.00000000
0.48571429 0.00714286 0.00000000
0.49285714 0.00714286 0.00000000
0.50000000 0.00714286 0.00000000
0.50714286 0.00714286 0.00000000
0.51428571 0.00714286 0.00000000
0.52142857 0.00714286 0.00000000
0.52857143 0.00714286 0.00000000
0.53571429 0.00714286 0.00000000
0.54285714 0.00714286 0.00000000
0.55000000 0.00714286 0.00000000
0.55714286 0.00714286 0.00000000
0.56428571 0.00714286 0.00000000
0.57142857 0.00714286 0.00000000
0.57857143 0.00714286 0.00000000
0.58571429 0.00714286 0.00000000
0.59285714 0.00714286 0.00000000
0.60000000 0.00714286 0.00000000
0.60714286 0.00714286 0.00000000
0.61428571 0.00714286 0.00000000
0.62142857 0.00714286 0.00000000
0.62857143 0.00714286 0.00000000
0.63571429 0.00714286 0.00000000
0.64285714 0.00714286 0.00000000
0.65000000 0.00714286 0.00000000
0.65714286 0.00714286 0.00000000
0.66428571 0.00714286 0.00000000
0.67142857 0.00714286 0.00000000
0.67857143 0.00714286 0.00000000
0.68571429 0.00714286 0.00000000
0.69285714 0.00714286 0.00000000
0.70000000 0.00714286 0.00000000
0.70714286 0.00714286 0.00000000
0.71428571 0.00714286 0.00000000
0.72142857 0.00714286 0.00000000
0.72857143 0.00714286 0.00000000
0.73571429 0.00714286 0.00000000
0.74285714 0.00714286 0.00000000
0.75000000 0.00714286 0.00000000
0.75714286 0.00714286 0.00000000
0.76428571 0.00714286 0.00000000
0.77142857 0.00714286 0.00000000
0.77857143 0.00714286 0.00000000
0.78571429 0.00714286 0.00000000
0.79285714 0.00714286 0.00000000
0.80000000 0.00714286 0.00000000
0.80714286 0.00714286 0.00000000
0.81428571 0.00714286 0.00000000
0.82142857 0.00714286 0.00000000
0.82857143 0.00714286 0.00000000
0.83571429 0.00714286 0.00000000
0.84285714 0.00714286 0.00000000
0.85000000 0.00714286 0.00000000
0.85714286 0.00714286 0.00000000
0.86428571 0.00714286 0.00000000
0.87142857 0.00714286 0.00000000
0.87857143 0.00714286 0.00000000
0.88571429 0.00714286 0.00000000
0.89285714 0.00714286 0.00000000
0.90000000 0.00714286 0.00000000
0.90714286 0.00714286 0.00000000
0.91428571 0.00714286 0.00000000
0.92142857 0.00714286 0.00000000
0.92857143 0.00714286 0.00000000
0.93571429 0.00714286 0.00000000
0.94285714 0.00714286 0.00000000
0.95000000 0.00714286 0.00000000
0.95714286 0.00714286 0.00000000
0.96428571 0.00714286 0.00000000
0.97142857 0.00714286 0.00000000
0.97857143 0.00714286 0.00000000
0.98571429 0.00714286 0.00000000
0.99285714 0.00714286 0.00000000
1.00000000 0.00714286 0.00000000
1.00714286 0.00714286 0.00000000
1.01428571 0.00714286 0.00000000
0.00000000 0.01428571 0.00000000
0.00714286 0.01428571 0.00000000
0.01428571 0.01428571 0.00000000
0.02142857 0.01428571 0.00000000
0.02857143 0.01428571 0.00000000
0.03571429 0.01428571 0.00000000
0.04285714 0.01428571 0.00000000
0.05000000 0.01428571 0.00000000
0.05714286 0.01428571 0.00000000
0.06428571 0.01428571 0.00000000
0.07142857 0.01428571 0.00000000
0.07857143 0.01428571 0.00000000
0.08571429 0.01428571 0.00000000
[...]
CELL_DATA 20164
SCALARS pressure double 
 LOOKUP_TABLE default
0.00000000
0.00000000
0.00000000
0.00000000
0.00000000
0.00000000
0.00000000
0.00000000
0.00000000
0.00000000
0.00000000
0.00000000
0.00000000
0.00000000
0.00000000
0.00000000
0.00000000
0.00000000
0.00000000
0.00000000
0.00000000
0.00000000
0.00000000
0.00000000
0.00000000
0.00000000
0.00000000
0.00000000
0.00000000
0.00000000
0.00000000
0.00000000
0.00000000
0.00000000
0.00000000
0.00000000
0.00000000
0.00000000
0.00000000
0.00000000
0.00000000
0.00000000
0.00000000
0.00000000
0.00000000
0.00000000
0.00000000
0.00000000
0.00000000
0.00000000
0.00000000
0.00000000
0.00000000
0.00000000
0.00000000
0.00000000
0.00000000
0.00000000
0.00000000
0.00000000
0.00000000
0.00000000
0.00000000
0.00000000
0.00000000
0.00000000
0.00000000
0.00000000
0.00000000
0.00000000
0.00000000
0.00000000
0.00000000
0.00000000
0.00000000
0.00000000
0.00000000
0.00000000
0.00000000
0.00000000
0.00000000
0.00000000
0.00000000
0.00000000
0.00000000
0.00000000
0.00000000
0.00000000
0.00000000
0.00000000
0.00000000
0.00000000
0.00000000
0.00000000
0.00000000
0.00000000
0.00000000
0.00000000
0.00000000
0.00000000
0.00000000
0.00000000
0.00000000
0.00000000
0.00000000
0.00000000
0.00000000
0.00000000
0.00000000
0.00000000
0.00000000
0.00000000
0.00000000
0.00000000
0.00000000
0.00000000
0.00000000
0.00000000
0.00000000
0.00000000
0.00000000
0.00000000
0.00000000
0.00000000
0.00000000
0.00000000
0.00000000
0.00000000
0.00000000
0.00000000
0.00000000
0.00000000
0.00000000
0.00000000
0.00000000
0.00000000
0.00000000
0.00000000
0.00000000
0.00000000
0.00000000
0.00000000
0.00000000
-0.03089183
-0.03087620
-0.03084494
-0.03079808
-0.03073563
-0.03065763
-0.03056412
-0.03045515
-0.03033078
-0.03019107
-0.03003610
-0.02986594
-0.02968069
-0.02948044
-0.02926530
-0.02903538
-0.02879080
-0.02853169
-0.02825818
-0.02797043
-0.02766856
-0.02735275
-0.02702316
-0.02667996
-0.02632332
-0.02595344
-0.02557049
-0.02517469
-0.02476624
-0.02434534
-0.02391222
-0.02346709
-0.02301018
-0.02254173
-0.02206199
-0.02157118
-0.02106957
-0.02055742
-0.02003497
-0.01950250
-0.01896028
-0.01840859
-0.01784770
-0.01727789
-0.01669947
-0.01611271
-0.01551791
-0.01491538
-0.01430541
-0.01368832
-0.01306441
-0.01243400
-0.01179740
-0.01115493
-0.01050691
-0.00985367
-0.00919554
-0.00853283
-0.00786588
-0.00719503
-0.00652060
-0.00584294
-0.00516238
-0.00447925
-0.00379390
-0.00310667
-0.00241790
-0.00172793
-0.00103710
-0.00034576
0.00034576
0.00103710
0.00172793
0.00241790
0.00310667
0.00379390
0.00447925
0.00516238
0.00584294
0.00652060
0.00719503
0.00786588
0.00853283
0.00919554
0.00985367
0.01050691
0.01115493
0.01179740
0.01243400
0.01306441
0.01368832
0.01430541
0.01491538
0.01551791
0.01611271
0.01669947
0.01727789
0.01784770
0.01840859
0.01896028
0.01950250
0.02003497
0.02055742
0.02106957
0.02157118
0.02206199
0.02254173
0.02301018
0.02346709
0.02391222
0.02434534
0.02476624
0.02517469
0.02557049
0.02595344
0.02632332
0.02667996
0.02702316
0.02735275
0.02766856
0.02797043
0.02825818
0.02853169
0.02879080
0.02903538
0.02926530
0.02948044
0.02968069
0.02986594
0.03003610
0.03019107
0.03033078
0.03045515
0.03056412
0.03065763
0.03073563
0.03079808
0.03084494
0.03087620
0.03089183
0.00000000
0.00000000
-0.03090747
-0.03089183
-0.03086055
-0.03081366
-0.03075118
-0.03067314
-0.03057958
-0.03047056
-0.03034612
-0.03020634
-0.03005128
-0.02988103
-0.02969568
-0.02949533
-0.02928008
-0.02905004
-0.02880533
-0.02854609
-0.02827244
-0.02798453
-0.02768251
-0.02736653
-0.02703677
-0.02669339
-0.02633657
-0.02596649
-0.02558335
-0.02518735
-0.02477868
-0.02435757
-0.02392422
-0.02347886
-0.02302172
-0.02255303
-0.02207304
-0.02158199
-0.02108012
-0.02056770
-0.02004499
-0.01951225
-0.01896976
-0.01841778
-0.01785661
-0.01728652
-0.01670780
-0.01612074
-0.01552565
-0.01492281
-0.01431254
-0.01369514
-0.01307091
-0.01244019
-0.01180327
-0.01116048
-0.01051214
-0.00985857
-0.00920011
-0.00853707
-0.00786979
-0.00719860
-0.00652384
-0.00584584
-0.00516494
-0.00448147
-0.00379579
-0.00310821
-0.00241910
-0.00172879
-0.00103761
-0.00034593
0.00034593
0.00103761
0.00172879
0.00241910
0.00310821
0.00379579
0.00448147
0.00516494
0.00584584
0.00652384
0.00719860
0.00786979
0.00853707
0.00920011
0.00985857
0.01051214
0.01116048
0.01180327
0.01244019
0.01307091
0.01369514
0.01431254
0.01492281
0.01552565
0.01612074
0.01670780
0.01728652
0.01785661
0.01841778
0.01896976
0.01951225
0.02004499
0.02056770
0.02108012
0.02158199
0.02207304
0.02255303
0.02302172
0.02347886
0.02392422
0.02435757
0.02477868
0.02518735
0.02558335
0.02596649
0.02633657
0.02669339
0.02703677
0.02736653
0.02768251
0.02798453
0.02827244
0.02854609
0.02880533
0.02905004
0.02928008
0.02949533
0.02969568
0.02988103
0.03005128
0.03020634
0.03034612
0.03047056
0.03057958
0.03067314
0.03075118
0.03081366
0.03086055
0.03089183
0.03090747
0.00000000
0.00000000
-0.03093874
-0.03092308
-0.03089178
-0.03084484
-0.03078229
-0.03070417
-0.03061051
-0.03050137
-0.03037680
-0.03023687
-0.03008165
-0.02991123
-0.02972569
-0.02952512
-0.02930965
-0.02907936
-0.02883440
-0.02857489
-0.02830095
-0.02801274
-0.02771041
-0.02739411
-0.02706400
-0.02672026
-0.02636307
-0.02599261
-0.02560908
-0.02521266
-0.02480358
-0.02438203
-0.02394823
-0.02350242
-0.02304481
-0.02257564
-0.02209516
-0.02160360
-0.02110122
-0.02058828
-0.02006504
-0.01953176
-0.01898872
-0.01843618
-0.01787444
-0.01730377
-0.01672447
-0.01613682
-0.01554112
-0.01493768
-0.01432679
-0.01370877
-0.01308392
-0.01245256
-0.01181501
-0.01117158
-0.01052259
-0.00986837
-0.00920925
-0.00854555
-0.00787760
-0.00720575
-0.00653032
-0.00585164
-0.00517006
-0.00448592
-0.00379955
-0.00311130
-0.00242150
-0.00173050
-0.00103864
-0.00034627
0.00034627
0.00103864
0.00173050
0.00242150
0.00311130
0.00379955
0.00448592
0.00517006
0.00585164
0.00653032
0.00720575
0.00787760
0.00854555
0.00920925
0.00986837
0.01052259
0.01117158
0.01181501
0.01245256
0.01308392
0.01370877
0.01432679
0.01493768
0.01554112
0.01613682
0.01672447
0.01730377
0.01787444
0.01843618
0.01898872
0.01953176
0.02006504
0.02058828
0.02110122
0.02160360
0.02209516
0.02257564
0.02304481
0.02350242
0.02394823
0.02438203
0.02480358
0.02521266
0.02560908
0.02599261
0.02636307
0.02672026
0.02706400
0.02739411
0.02771041
0.02801274
0.02830095
0.02857489
0.02883440
0.02907936
0.02930965
0.02952512
0.02972569
0.02991123
0.03008165
0.03023687
0.03037680
0.03050137
0.03061051
0.03070417
0.03078229
0.03084484
0.03089178
0.03092308
0.03093874
0.00000000
0.00000000
-0.03098567
-0.03096999
-0.03093863
-0.03089162
-0.03082897
-0.03075073
-0.03065693
-0.03054761
-0.03042285
-0.03028270
-0.03012724
-0.02995654
-0.02977071
-0.02956983
-0.02935401
-0.02912337
-0.02887803
-0.02861810
-0.02834374
-0.02805508
-0.02775228
-0.02743548
-0.02710486
-0.02676059
-0.02640284
-0.02603181
-0.02564768
-0.02525065
-0.02484093
-0.02441873
-0.02398427
-0.02353777
-0.02307946
-0.02260957
-0.02212835
-0.02163604
-0.02113289
-0.02061917
-0.02009513
-0.01956103
-0.01901716
-0.01846379
-0.01790119
-0.01732966
-0.01674948
-0.01616094
-0.01556435
-0.01495999
-0.01434819
-0.01372923
-0.01310345
-0.01247114
-0.01183263
-0.01118823
-0.01053827
-0.00988307
-0.00922296
-0.00855827
-0.00788933
-0.00721647
-0.00654003
-0.00586035
-0.00517776
-0.00449259
-0.00380520
-0.00311592
-0.00242510
-0.00173307
-0.00104019
-0.00034679
0.00034679
0.00104019
0.00173307
0.00242510
0.00311592
0.00380520
0.00449259
0.00517776
0.00586035
0.00654003
0.00721647
0.00788933
0.00855827
0.00922296
0.00988307
0.01053827
0.01118823
0.01183263
0.01247114
0.01310345
0.01372923
0.01434819
0.01495999
0.01556435
0.01616094
0.01674948
0.01732966
0.01790119
0.01846379
0.01901716
0.01956103
0.02009513
0.02061917
0.02113289
0.02163604
0.02212835
0.02260957
0.02307946
0.02353777
0.02398427
0.02441873
0.02484093
0.02525065
0.02564768
0.02603181
0.02640284
0.02676059
0.02710486
0.02743548
0.02775228
0.02805508
0.02834374
0.02861810
0.02887803
0.02912337
0.02935401
0.02956983
0.02977071
0.02995654
0.03012724
0.03028270
0.03042285
0.03054761
0.03065693
0.03075073
0.03082897
0.03089162
0.03093863
0.03096999
0.03098567
0.00000000
0.00000000
-0.03104828
-0.03103257
-0.03100115
-0.03095404
-0.03089126
-0.03081285
-0.03071885
-0.03060931
-0.03048428
-0.03034384
-0.03018805
-0.03001700
-0.02983077
-0.02962947
-0.02941321
-0.02918208
-0.02893623
-0.02867576
-0.02840083
-0.02811157
-0.02780813
-0.02749068
-0.02715937
-0.02681439
-0.02645590
-0.02608410
-0.02569918
-0.02530133
-0.02489077
-0.02446770
-0.02403235
-0.02358493
-0.02312568
-0.02265483
-0.02217262
-0.02167931
-0.02117514
-0.02066037
-0.02013526
-0.01960008
-0.01905511
-0.01850062
-0.01793688
-0.01736420
-0.01678284
-0.01619312
-0.01559533
-0.01498976
-0.01437672
-0.01375653
-0.01312949
-0.01249592
-0.01185613
-0.01121044
-0.01055919
-0.00990268
-0.00924126
-0.00857525
-0.00790498
-0.00723078
-0.00655300
-0.00587196
-0.00518801
-0.00450149
-0.00381274
-0.00312210
-0.00242990
-0.00173651
-0.00104225
-0.00034747
0.00034747
0.00104225
0.00173651
0.00242990
0.00312210
0.00381274
0.00450149
0.00518801
0.00587196
0.00655300
0.00723078
0.00790498
0.00857525
0.00924126
0.00990268
0.01055919
0.01121044
0.01185613
0.01249592
0.01312949
0.01375653
0.01437672
0.01498976
0.01559533
0.01619312
0.01678284
0.01736420
0.01793688
0.01850062
0.01905511
0.01960008
0.02013526
0.02066037
0.02117514
0.02167931
0.02217262
0.02265483
0.02312568
0.02358493
0.02403235
0.02446770
0.02489077
0.02530133
0.02569918
0.02608410
0.02645590
0.02681439
0.02715937
0.02749068
0.02780813
0.02811157
0.02840083
0.02867576
0.02893623
0.02918208
0.02941321
0.02962947
0.02983077
0.03001700
0.03018805
0.03034384
0.03048428
0.03060931
0.03071885
0.03081285
0.03089126
0.03095404
0.03100115
0.03103257
0.03104828
0.00000000
0.00000000
-0.03112661
-0.03111086
-0.03107935
-0.03103212
-0.03096917
-0.03089056
-0.03079631
-0.03068648
-0.03056113
-0.03042032
-0.03026412
-0.03009262
-0.02990591
-0.02970409
-0.02948726
-0.02925553
-0.02900903
-0.02874789
-0.02847224
-0.02818223
-0.02787801
-0.02755973
-0.02722757
-0.02688169
-0.02652228
-0.02614952
-0.02576360
-0.02536473
-0.02495311
-0.02452896
-0.02409249
-0.02364392
-0.02318349
-0.02271144
-0.02222801
-0.02173344
-0.02122798
-0.02071191
-0.02018547
-0.01964893
-0.01910258
-0.01854668
-0.01798153
-0.01740740
-0.01682458
-0.01623338
-0.01563408
-0.01502699
-0.01441242
-0.01379068
-0.01316207
-0.01252691
-0.01188553
-0.01123823
-0.01058535
-0.00992721
-0.00926415
-0.00859648
-0.00792454
-0.00724868
-0.00656921
-0.00588649
-0.00520085
-0.00451263
-0.00382217
-0.00312982
-0.00243591
-0.00174080
-0.00104482
-0.00034833
0.00034833
0.00104482
0.00174080
0.00243591
0.00312982
0.00382217
0.00451263
0.00520085
0.00588649
0.00656921
0.00724868
0.00792454
0.00859648
0.00926415
0.00992721
0.01058535
0.01123823
0.01188553
0.01252691
0.01316207
0.01379068
0.01441242
0.01502699
0.01563408
0.01623338
0.01682458
0.01740740
0.01798153
0.01854668
0.01910258
0.01964893
0.02018547
0.02071191
0.02122798
0.02173344
0.02222801
0.02271144
0.02318349
0.02364392
0.02409249
0.02452896
0.02495311
0.02536473
0.02576360
0.02614952
0.02652228
0.02688169
0.02722757
0.02755973
0.02787801
0.02818223
0.02847224
0.02874789
0.02900903
0.02925553
0.02948726
0.02970409
0.02990591
0.03009262
0.03026412
0.03042032
0.03056113
0.03068648
0.03079631
0.03089056
0.03096917
0.03103212
0.03107935
0.03111086
0.03112661
0.00000000
0.00000000
-0.03122070
-0.03120489
-0.03117329
-0.03112590
-0.03106276
-0.03098390
-0.03088936
-0.03077918
-0.03065344
-0.03051218
-0.03035550
-0.03018346
-0.02999617
-0.02979371
-0.02957620
-0.02934375
-0.02909648
-0.02883453
-0.02855802
-0.02826710
-0.02796193
-0.02764267
-0.02730947
-0.02696252
-0.02660200
-0.02622809
-0.02584098
-0.02544088
-0.02502799
-0.02460253
-0.02416472
-0.02371478
-0.02325294
-0.02277944
-0.02229453
-0.02179845
-0.02129145
-0.02077380
-0.02024576
-0.01970760
-0.01915959
-0.01860201
-0.01803515
-0.01745928
-0.01687471
-0.01628172
-0.01568062
-0.01507171
-0.01445529
-0.01383168
-0.01320119
-0.01256413
-0.01192083
-0.01127160
-0.01061678
-0.00995668
-0.00929163
-0.00862198
-0.00794805
-0.00727017
-0.00658869
-0.00590394
-0.00521626
-0.00452600
-0.00383349
-0.00313909
-0.00244313
-0.00174596
-0.00104792
-0.00034936
0.00034936
0.00104792
0.00174596
0.00244313
0.00313909
0.00383349
0.00452600
0.00521626
0.00590394
0.00658869
0.00727017
0.00794805
0.00862198
0.00929163
0.00995668
0.01061678
0.01127160
0.01192083
0.01256413
0.01320119
0.01383168
0.01445529
0.01507171
0.01568062
0.01628172
0.01687471
0.01745928
0.01803515
0.01860201
0.01915959
0.01970760
0.02024576
0.02077380
0.02129145
0.02179845
0.02229453
0.02277944
0.02325294
0.02371478
0.02416472
0.02460253
0.02502799
0.02544088
0.02584098
0.02622809
0.02660200
0.02696252
0.02730947
0.02764267
0.02796193
0.02826710
0.02855802
0.02883453
0.02909648
0.02934375
0.02957620
0.02979371
0.02999617
0.03018346
0.03035550
0.03051218
0.03065344
0.03077918
0.03088936
0.03098390
0.03106276
0.03112590
0.03117329
0.03120489
0.03122070
0.00000000
0.00000000
-0.03133059
-0.03131472
-0.03128300
-0.03123545
-0.03117208
-0.03109292
-0.03099804
-0.03088746
-0.03076125
-0.03061948
-0.03046222
-0.03028956
-0.03010158
-0.02989839
-0.02968009
-0.02944679
-0.02919862
-0.02893571
-0.02865820
-0.02836623
-0.02805996
-0.02773954
-0.02740514
-0.02705693
-0.02669511
-0.02631985
-0.02593135
-0.02552981
-0.02511544
-0.02468846
-0.02424908
-0.02379753
-0.02333404
-0.02285886
-0.02237222
-0.02187437
-0.02136558
-0.02084609
-0.02031618
-0.01977612
-0.01922617
-0.01866663
-0.01809777
-0.01751988
-0.01693325
-0.01633818
-0.01573497
-0.01512393
-0.01450536
-0.01387957
-0.01324688
-0.01260760
-0.01196206
-0.01131058
-0.01065347
-0.00999108
-0.00932373
-0.00865176
-0.00797549
-0.00729527
-0.00661143
-0.00592431
-0.00523426
-0.00454161
-0.00384672
-0.00314991
-0.00245155
-0.00175198
-0.00105153
-0.00035057
0.00035057
0.00105153
0.00175198
0.00245155
0.00314991
0.00384672
0.00454161
0.00523426
0.00592431
0.00661143
0.00729527
0.00797549
0.00865176
0.00932373
0.00999108
0.01065347
0.01131058
0.01196206
0.01260760
0.01324688
0.01387957
0.01450536
0.01512393
0.01573497
0.01633818
0.01693325
0.01751988
0.01809777
0.01866663
0.01922617
0.01977612
0.02031618
0.02084609
0.02136558
0.02187437
0.02237222
0.02285886
0.02333404
0.02379753
0.02424908
0.02468846
0.02511544
0.02552981
0.02593135
0.02631985
0.02669511
0.02705693
0.02740514
0.02773954
0.02805996
0.02836623
0.02865820
0.02893571
0.02919862
0.02944679
0.02968009
0.02989839
0.03010158
0.03028956
0.03046222
0.03061948
0.03076125
0.03088746
0.03099804
0.03109292
0.03117208
0.03123545
0.03128300
0.03131472
0.03133059
0.00000000
0.00000000
-0.03145634
-0.03144041
-0.03140856
-0.03136080
-0.03129717
-0.03121769
-0.03112240
-0.03101136
-0.03088463
-0.03074227
-0.03058435
-0.03041097
-0.03022221
-0.03001817
-0.02979896
-0.02956470
-0.02931550
-0.02905150
-0.02877284
-0.02847967
-0.02817212
-0.02785038
-0.02751460
-0.02716497
-0.02680165
-0.02642485
-0.02603476
-0.02563157
-0.02521551
-0.02478678
-0.02434561
-0.02389222
-0.02342684
-0.02294973
-0.02246111
-0.02196125
-0.02145039
-0.02092881
-0.02039676
-0.01985452
-0.01930236
-0.01874056
-0.01816941
-0.01758921
-0.01700023
-0.01640278
-0.01579716
-0.01518368
-0.01456264
-0.01393436
-0.01329916
-0.01265734
-0.01200923
-0.01135517
-0.01069546
-0.01003045
-0.00936046
-0.00868583
-0.00800689
-0.00732398
-0.00663744
-0.00594762
-0.00525485
-0.00455948
-0.00386184
-0.00316230
-0.00246119
-0.00175886
-0.00105567
-0.00035195
0.00035195
0.00105567
0.00175886
0.00246119
0.00316230
0.00386184
0.00455948
0.00525485
0.00594762
0.00663744
0.00732398
0.00800689
0.00868583
0.00936046
0.01003045
0.01069546
0.01135517
0.01200923
0.01265734
0.01329916
0.01393436
0.01456264
0.01518368
0.01579716
0.01640278
0.01700023
0.01758921
0.01816941
0.01874056
0.01930236
0.01985452
0.02039676
0.02092881
0.02145039
0.02196125
0.02246111
0.02294973
0.02342684
0.02389222
0.02434561
0.02478678
0.02521551
0.02563157
0.02603476
0.02642485
0.02680165
0.02716497
0.02751460
0.02785038
0.02817212
0.02847967
0.02877284
0.02905150
0.02931550
0.02956470
0.02979896
0.03001817
0.03022221
0.03041097
0.03058435
0.03074227
0.03088463
0.03101136
0.03112240
0.03121769
0.03129717
0.03136080
0.03140856
0.03144041
0.03145634
0.00000000
0.00000000
-0.03159803
-0.03158202
-0.03155002
-0.03150204
-0.03143811
-0.03135825
-0.03126252
-0.03115096
-0.03102363
-0.03088061
-0.03072195
-0.03054776
-0.03035812
-0.03015313
-0.02993290
-0.02969754
-0.02944718
-0.02918196
-0.02890200
-0.02860746
-0.02829850
-0.02797526
-0.02763793
-0.02728668
-0.02692169
-0.02654315
-0.02615126
-0.02574622
-0.02532824
-0.02489755
-0.02445435
-0.02399889
-0.02353139
-0.02305209
-0.02256125
-0.02205912
-0.02154594
-0.02102199
-0.02048753
-0.01994283
-0.01938818
-0.01882385
-0.01825012
-0.01766730
-0.01707568
-0.01647555
-0.01586722
-0.01525099
-0.01462717
-0.01399608
-0.01335804
-0.01271336
-0.01206237
-0.01140539
-0.01074275
-0.01007479
-0.00940182
-0.00872420
-0.00804226
-0.00735632
-0.00666675
-0.00597388
-0.00527804
-0.00457960
-0.00387888
-0.00317625
-0.00247205
-0.00176662
-0.00106032
-0.00035350
0.00035350
0.00106032
0.00176662
0.00247205
0.00317625
0.00387888
0.00457960
0.00527804
0.00597388
0.00666675
0.00735632
0.00804226
0.00872420
0.00940182
0.01007479
0.01074275
0.01140539
0.01206237
0.01271336
0.01335804
0.01399608
0.01462717
0.01525099
0.01586722
0.01647555
0.01707568
0.01766730
0.01825012
0.01882385
0.01938818
0.01994283
0.02048753
0.02102199
0.02154594
0.02205912
0.02256125
0.02305209
0.02353139
0.02399889
0.02445435
0.02489755
0.02532824
0.02574622
0.02615126
0.02654315
0.02692169
0.02728668
0.02763793
0.02797526
0.02829850
0.02860746
0.02890200
0.02918196
0.02944718
0.02969754
0.02993290
0.03015313
0.03035812
0.03054776
0.03072195
0.03088061
0.03102363
0.03115096
0.03126252
0.03135825
0.03143811
0.03150204
0.03155002
0.03158202
0.03159803
0.00000000
0.00000000
-0.03175571
-0.03173963
-0.03170746
-0.03165923
-0.03159496
-0.03151469
-0.03141846
-0.03130633
-0.03117834
-0.03103457
-0.03087510
-0.03070000
-0.03050938
-0.03030332
-0.03008195
-0.02984538
-0.02959373
-0.02932714
-0.02904574
-0.02874969
-0.02843913
-0.02811424
-0.02777518
-0.02742213
-0.02705527
-0.02667479
-0.02628090
-0.02587380
-0.02545370
-0.02502081
-0.02457537
-0.02411759
-0.02364773
-0.02316601
-0.02267269
-0.02216802
-0.02165226
-0.02112567
-0.02058853
-0.02004110
-0.01948367
-0.01891652
-0.01833993
-0.01775421
-0.01715963
-0.01655652
-0.01594516
-0.01532588
-0.01469897
-0.01406476
-0.01342356
-0.01277570
-0.01212150
-0.01146128
-0.01079538
-0.01012412
-0.00944785
-0.00876690
-0.00808161
-0.00739231
-0.00669936
-0.00600309
-0.00530385
-0.00460198
-0.00389784
-0.00319178
-0.00248413
-0.00177526
-0.00106551
-0.00035523
0.00035523
0.00106551
0.00177526
0.00248413
0.00319178
0.00389784
0.00460198
0.00530385
0.00600309
0.00669936
0.00739231
0.00808161
0.00876690
0.00944785
0.01012412
0.01079538
0.01146128
0.01212150
0.01277570
0.01342356
0.01406476
0.01469897
0.01532588
0.01594516
0.01655652
0.01715963
0.01775421
0.01833993
0.01891652
0.01948367
0.02004110
0.02058853
0.02112567
0.02165226
0.02216802
0.02267269
0.02316601
0.02364773
0.02411759
0.02457537
0.02502081
0.02545370
0.02587380
0.02628090
0.02667479
0.02705527
0.02742213
0.02777518
0.02811424
0.02843913
0.02874969
0.02904574
0.02932714
0.02959373
0.02984538
0.03008195
0.03030332
0.03050938
0.03070000
0.03087510
0.03103457
0.03117834
0.03130633
0.03141846
0.03151469
0.03159496
0.03165923
0.03170746
0.03173963
0.03175571
0.00000000
0.00000000
-0.03192949
-0.03191331
-0.03188096
-0.03183246
-0.03176782
-0.03168710
-0.03159032
-0.03147754
-0.03134883
-0.03120424
-0.03104386
-0.03086777
-0.03067606
-0.03046884
-0.03024621
-0.03000830
-0.02975523
-0.02948713
-0.02920414
-0.02890641
-0.02859411
-0.02826738
-0.02792642
-0.02757138
-0.02720246
-0.02681986
-0.02642376
-0.02601438
-0.02559193
-0.02515663
-0.02470871
-0.02424839
-0.02377591
-0.02329153