# vtk DataFile Version 3.0
particle point data
ASCII
DATASET STRUCTURED_GRID
DIMENSIONS 143 143 2
POINTS 40898 double
0.00000000 0.00000000 0.00000000
0.00714286 0.00000000 0.00000000
0.01428571 0.00000000 0.00000000
0.02142857 0.00000000 0.00000000
0.02857143 0.00000000 0.00000000
0.03571429 0.00000000 0.00000000
0.04285714 0.00000000 0.00000000
0.05000000 0.00000000 0.00000000
0.05714286 0.00000000 0.00000000
0.06428571 0.00000000 0.00000000
0.07142857 0.00000000 0.00000000
0.07857143 0.00000000 0.00000000
0.08571429 0.00000000 0.00000000
0.09285714 0.00000000 0.00000000
0.10000000 0.00000000 0.00000000
0.10714286 0.00000000 0.00000000
0.11428571 0.00000000 0.00000000
0.12142857 0.00000000 0.00000000
0.12857143 0.00000000 0.00000000
0.13571429 0.00000000 0.00000000
0.14285714 0.00000000 0.00000000
0.15000000 0.00000000 0.00000000
0.15714286 0.00000000 0.00000000
0.16428571 0.00000000 0.00000000
0.17142857 0.00000000 0.00000000
0.17857143 0.00000000 0.00000000
0.18571429 0.00000000 0.00000000
0.19285714 0.00000000 0.00000000
0.20000000 0.00000000 0.00000000
0.20714286 0.00000000 0.00000000
0.21428571 0.00000000 0.00000000
0.22142857 0.00000000 0.00000000
0.22857143 0.00000000 0.00000000
0.23571429 0.00000000 0.00000000
0.24285714 0.00000000 0.00000000
0.25000000 0.00000000 0.00000000
0.25714286 0.00000000 0.00000000
0.26428571 0.00000000 0.00000000
0.27142857 0.00000000 0.00000000
0.27857143 0.00000000 0.00000000
0.28571429 0.00000000 0.00000000
0.29285714 0.00000000 0.00000000
0.30000000 0.00000000 0.00000000
0.30714286 0.00000000 0.00000000
0.31428571 0.00000000 0.00000000
0.32142857 0.00000000 0.00000000
0.32857143 0.00000000 0.00000000
0.33571429 0.00000000 0.00000000
0.34285714 0.00000000 0.00000000
0.35000000 0.00000000 0.00000000
0.35714286 0.00000000 0.00000000
0.36428571 0.00000000 0.00000000
0.37142857 0.00000000 0.00000000
0.37857143 0.00000000 0.00000000
0.38571429 0.00000000 0.00000000
0.39285714 0.00000000 0.00000000
0.40000000 0.00000000 0.00000000
0.40714286 0.00000000 0.00000000
0.41428571 0.00000000 0.00000000
0.42142857 0.00000000 0.00000000
0.42857143 0.00000000 0.00000000
0.43571429 0.00000000 0.00000000
0.44285714 0.00000000 0.00000000
0.45000000 0.00000000 0.00000000
0.45714286 0.00000000 0.00000000
0.46428571 0.00000000 0.00000000
0.47142857 0.00000000 0.00000000
0.47857143 0.00000000 0.00000000
0.48571429 0.00000000 0.00000000
0.49285714 0.00000000 0.00000000
0.50000000 0.00000000 0.00000000
0.50714286 0.00000000 0.00000000
0.51428571 0.00000000 0.00000000
0.52142857 0.00000000 0.00000000
0.52857143 0.00000000 0.00000000
0.53571429 0.00000000 0.00000000
0.54285714 0.00000000 0.00000000
0.55000000 0.00000000 0.00000000
0.55714286 0.00000000 0.00000000
0.56428571 0.00000000 0.00000000
0.57142857 0.00000000 0.00000000
0.57857143 0.00000000 0.00000000
0.58571429 0.00000000 0.00000000
0.59285714 0.00000000 0.00000000
0.60000000 0.00000000 0.00000000
0.60714286 0.00000000 0.00000000
0.61428571 0.00000000 0.00000000
0.62142857 0.00000000 0.00000000
0.62857143 0.00000000 0.00000000
0.63571429 0.00000000 0.00000000
0.64285714 0.00000000 0.00000000
0.65000000 0.00000000 0.00000000
0.65714286 0.00000000 0.00000000
0.66428571 0.00000000 0.00000000
0.67142857 0.00000000 0.00000000
0.67857143 0.00000000 0.00000000
0.68571429 0.00000000 0.00000000
0.69285714 0.00000000 0.00000000
0.70000000 0.00000000 0.00000000
0.70714286 0.00000000 0.00000000
0.71428571 0.00000000 0.00000000
0.72142857 0.00000000 0.00000000
0.72857143 0.00000000 0.00000000
0.73571429 0.00000000 0.00000000
0.74285714 0.00000000 0.00000000
0.75000000 0.00000000 0.00000000
0.75714286 0.00000000 0.00000000
0.76428571 0.00000000 0.00000000
0.77142857 0.00000000 0.00000000
0.77857143 0.00000000 0.00000000
0.78571429 0.00000000 0.00000000
0.79285714 0.00000000 0.00000000
0.80000000 0.00000000 0.00000000
0.80714286 0.00000000 0.00000000
0.81428571 0.00000000 0.00000000
0.82142857 0.00000000 0.00000000
0.82857143 0.00000000 0.00000000
0.83571429 0.00000000 0.00000000
0.84285714 0.00000000 0.00000000
0.85000000 0.00000000 0.00000000
0.85714286 0.00000000 0.00000000
0.86428571 0.00000000 0.00000000
0.87142857 0.00000000 0.00000000
0.87857143 0.00000000 0.00000000
0.88571429 0.00000000 0.00000000
0.89285714 0.00000000 0.00000000
0.90000000 0.00000000 0.00000000
0.90714286 0.00000000 0.00000000
0.91428571 0.00000000 0.00000000
0.92142857 0.00000000 0.00000000
0.92857143 0.00000000 0.00000000
0.93571429 0.00000000 0.00000000
0.94285714 0.00000000 0.00000000
0.95000000 0.00000000 0.00000000
0.95714286 0.00000000 0.00000000
0.96428571 0.00000000 0.00000000
0.97142857 0.00000000 0.00000000
0.97857143 0.00000000 0.00000000
0.98571429 0.00000000 0.00000000
0.99285714 0.00000000 0.00000000
1.00000000 0.00000000 0.00000000
1.00714286 0.00000000 0.00000000
1.01428571 0.00000000 0.00000000
0.00000000 0.00714286 0.00000000
0.00714286 0.00714286 0.00000000
0.01428571 0.00714286 0.00000000
0.02142857 0.00714286 0.00000000
0.02857143 0.00714286 0.00000000
0.03571429 0.00714286 0.00000000
0.04285714 0.00714286 0.00000000
0.05000000 0.00714286 0.00000000
0.05714286 0.00714286 0.00000000
0.06428571 0.00714286 0.00000000
0.07142857 0.00714286 0.00000000
0.07857143 0.00714286 0.00000000
0.08571429 0.00714286 0.00000000
0.09285714 0.00714286 0.00000000
0.10000000 0.00714286 0.00000000
0.10714286 0.00714286 0.00000000
0.11428571 0.00714286 0.00000000
0.12142857 0.00714286 0.00000000
0.12857143 0.00714286 0.00000000
0.13571429 0.00714286 0.00000000
0.14285714 0.00714286 0.00000000
0.15000000 0.00714286 0.00000000
0.15714286 0.00714286 0.00000000
0.16428571 0.00714286 0.00000000
0.17142857 0.00714286 0.00000000
0.17857143 0.00714286 0.00000000
0.18571429 0.00714286 0.00000000
0.19285714 0.00714286 0.00000000
0.20000000 0.00714286 0.00000000
0.20714286 0.00714286 0.00000000
0.21428571 0.00714286 0.00000000
0.22142857 0.00714286 0.00000000
0.22857143 0.00714286 0.00000000
0.23571429 0.00714286 0.00000000
0.24285714 0.00714286 0.00000000
0.25000000 0.00714286 0.00000000
0.25714286 0.00714286 0.00000000
0.26428571 0.00714286 0.00000000
0.27142857 0.00714286 0.00000000
0.27857143 0.00714286 0.00000000
0.28571429 0.00714286 0.00000000
0.29285714 0.00714286 0.00000000
0.30000000 0.00714286 0.00000000
0.30714286 0.00714286 0.00000000
0.31428571 0.00714286 0.00000000
0.32142857 0.00714286 0.00000000
0.32857143 0.00714286 0.00000000
0.33571429 0.00714286 0.00000000
0.34285714 0.00714286 0.00000000
0.35000000 0.00714286 0.00000000
0.35714286 0.00714286 0.00000000
0.36428571 0.00714286 0.00000000
0.37142857 0.00714286 0.00000000
0.37857143 0.00714286 0.00000000
0.38571429 0.00714286 0.00000000
0.39285714 0.00714286 0.00000000
0.40000000 0.00714286 0.00000000
0.40714286 0.00714286 0.00000000
0.41428571 0.00714286 0.00000000
0.42142857 0.00714286 0.00000000
0.42857143 0.00714286 0.00000000
0.43571429 0.00714286 0.00000000
0.44285714 0.00714286 0.00000000
0.45000000 0.00714286 0.00000000
0.45714286 0.00714286 0.00000000
0.46428571 0.00714286 0.00000000
0.47142857 0.00714286 0.00000000
0.47857143 0.00714286 0.00000000
0.48571429 0.00714286 0.00000000
0.49285714 0.00714286 0.00000000
0.50000000 0.00714286 0.00000000
0.50714286 0.00714286 0.00000000
0.51428571 0.00714286 0.00000000
0.52142857 0.00714286 0.00000000
0.52857143 0.00714286 0.00000000
0.53571429 0.00714286 0.00000000
0.54285714 0.00714286 0.00000000
0.55000000 0.00714286 0.00000000
0.55714286 0.00714286 0.00000000
0.56428571 0.00714286 0.00000000
0.57142857 0.00714286 0.00000000
0.57857143 0.00714286 0.00000000
0.58571429 0.00714286 0.00000000
0.59285714 0.00714286 0.00000000
0.60000000 0.00714286 0.00000000
0.60714286 0.00714286 0.00000000
0.61428571 0.00714286 0.00000000
0.62142857 0.00714286 0.00000000
0.62857143 0.00714286 0.00000000
0.63571429 0.00714286 0.00000000
0.64285714 0.00714286 0.00000000
0.65000000 0.00714286 0.00000000
0.65714286 0.00714286 0.00000000
0.66428571 0.00714286 0.00000000
0.67142857 0.00714286 0.00000000
0.67857143 0.00714286 0.00000000
0.68571429 0.00714286 0.00000000
0.69285714 0.00714286 0.00000000
0.70000000 0.00714286 0.00000000
0.70714286 0.00714286 0.00000000
0.71428571 0.00714286 0.00000000
0.72142857 0.00714286 0.00000000
0.72857143 0.00714286 0.00000000
0.73571429 0.00714286 0.00000000
0.74285714 0.00714286 0.00000000
0.75000000 0.00714286 0.00000000
0.75714286 0.00714286 0.00000000
0.76428571 0.00714286 0.00000000
0.77142857 0.00714286 0.00000000
0.77857143 0.00714286 0.00000000
0.78571429 0.00714286 0.00000000
0.79285714 0.00714286 0.00000000
0.80000000 0.00714286 0.00000000
0.80714286 0.00714286 0.00000000
0.81428571 0.00714286 0.00000000
0.82142857 0.00714286 0.00000000
0.82857143 0.00714286 0.00000000
0.83571429 0.00714286 0.00000000
0.84285714 0.00714286 0.00000000
0.85000000 0.00714286 0.00000000
0.85714286 0.00714286 0.00000000
0.86428571 0.00714286 0.00000000
0.87142857 0.00714286 0.00000000
0.87857143 0.00714286 0.00000000
0.88571429 0.00714286 0.00000000
0.89285714 0.00714286 0.00000000
0.90000000 0.00714286 0.00000000
0.90714286 0.00714286 0.00000000
0.91428571 0.00714286 0.00000000
0.92142857 0.00714286 0.00000000
0.92857143 0.00714286 0.00000000
0.93571429 0.00714286 0.00000000
0.94285714 0.00714286 0.00000000
0.95000000 0.00714286 0.00000000
0.95714286 0.00714286 0.00000000
0.96428571 0.00714286 0.00000000
0.97142857 0.00714286 0.00000000
0.97857143 0.00714286 0.00000000
0.98571429 0.00714286 0.00000000
0.99285714 0.00714286 0.00000000
1.00000000 0.00714286 0.00000000
1.00714286 0.00714286 0.00000000
1.01428571 0.00714286 0.00000000
0.00000000 0.01428571 0.00000000
0.00714286 0.01428571 0.00000000
0.01428571 0.01428571 0.00000000
0.02142857 0.01428571 0.00000000
0.02857143 0.01428571 0.00000000
0.03571429 0.01428571 0.00000000
0.04285714 0.01428571 0.00000000
0.05000000 0.01428571 0.00000000
0.05714286 0.01428571 0.00000000
0.06428571 0.01428571 0.00000000
0.07142857 0.01428571 0.00000000
0.07857143 0.01428571 0.00000000
0.08571429 0.01428571 0.00000000
[...]
CELL_DATA 20164
SCALARS pressure double 
 LOOKUP_TABLE default
0.00000000
0.00000000
0.00000000
0.00000000
0.00000000
0.00000000
0.00000000
0.00000000
0.00000000
0.00000000
0.00000000
0.00000000
0.00000000
0.00000000
0.00000000
0.00000000
0.00000000
0.00000000
0.00000000
0.00000000
0.00000000
0.00000000
0.00000000
0.00000000
0.00000000
0.00000000
0.00000000
0.00000000
0.00000000
0.00000000
0.00000000
0.00000000
0.00000000
0.00000000
0.00000000
0.00000000
0.00000000
0.00000000
0.00000000
0.00000000
0.00000000
0.00000000
0.00000000
0.00000000
0.00000000
0.00000000
0.00000000
0.00000000
0.00000000
0.00000000
0.00000000
0.00000000
0.00000000
0.00000000
0.00000000
0.00000000
0.00000000
0.00000000
0.00000000
0.00000000
0.00000000
0.00000000
0.00000000
0.00000000
0.00000000
0.00000000
0.00000000
0.00000000
0.00000000
0.00000000
0.00000000
0.00000000
0.00000000
0.00000000
0.00000000
0.00000000
0.00000000
0.00000000
0.00000000
0.00000000
0.00000000
0.00000000
0.00000000
0.00000000
0.00000000
0.00000000
0.00000000
0.00000000
0.00000000
0.00000000
0.00000000
0.00000000
0.00000000
0.00000000
0.00000000
0.00000000
0.00000000
0.00000000
0.00000000
0.00000000
0.00000000
0.00000000
0.00000000
0.00000000
0.00000000
0.00000000
0.00000000
0.00000000
0.00000000
0.00000000
0.00000000
0.00000000
0.00000000
0.00000000
0.00000000
0.00000000
0.00000000
0.00000000
0.00000000
0.00000000
0.00000000
0.00000000
0.00000000
0.00000000
0.00000000
0.00000000
0.00000000
0.00000000
0.00000000
0.00000000
0.00000000
0.00000000
0.00000000
0.00000000
0.00000000
0.00000000
0.00000000
0.00000000
0.00000000
0.00000000
0.00000000
0.00000000
0.00000000
0.04394335
0.04395307
0.04396551
0.04397473
0.04397718
0.04397099
0.04395532
0.04393001
0.04389530
0.04385169
0.04379979
0.04374030
0.04367391
0.04360126
0.04352296
0.04343949
0.04335127
0.04325859
0.04316166
0.04306057
0.04295533
0.04284588
0.04273208
0.04261377
0.04249073
0.04236274
0.04222958
0.04209105
0.04194695
0.04179716
0.04164156
0.04148012
0.04131286
0.04113987
0.04096131
0.04077742
0.04058852
0.04039501
0.04019741
0.03999630
0.03979236
0.03958641
0.03937931
0.03917208
0.03896581
0.03876170
0.03856105
0.03836525
0.03817578
0.03799420
0.03782212
0.03766122
0.03751321
0.03737981
0.03726275
0.03716372
0.03708437
0.03702628
0.03699091
0.03697961
0.03699357
0.03703377
0.03710099
0.03719578
0.03731841
0.03746885
0.03764678
0.03785151
0.03808206
0.03833704
0.03861474
0.03891308
0.03922962
0.03956159
0.03990591
0.04025918
0.04061777
0.04097781
0.04133528
0.04168601
0.04202578
0.04235040
0.04265569
0.04293765
0.04319246
0.04341658
0.04360682
0.04376038
0.04387491
0.04394858
0.04398011
0.04396878
0.04391448
0.04381769
0.04367949
0.04350151
0.04328593
0.04303543
0.04275308
0.04244237
0.04210704
0.04175106
0.04137854
0.04099361
0.04060041
0.04020295
0.03980508
0.03941041
0.03902227
0.03864366
0.03827722
0.03792524
0.03758959
0.03727178
0.03697296
0.03669390
0.03643505
0.03619657
0.03597835
0.03578004
0.03560114
0.03544097
0.03529875
0.03517364
0.03506476
0.03497124
0.03489224
0.03482699
0.03477478
0.03473499
0.03470708
0.03469054
0.03468485
0.03468935
0.03470311
0.03472468
0.03475168
0.03478037
0.03480511
0.03481824
0.00000000
0.00000000
0.04393364
0.04394336
0.04395263
0.04395822
0.04395773
0.04394966
0.04393320
0.04390810
0.04387443
0.04383253
0.04378288
0.04372604
0.04366257
0.04359304
0.04351795
0.04343776
0.04335281
0.04326339
0.04316966
0.04307174
0.04296962
0.04286327
0.04275258
0.04263739
0.04251751
0.04239277
0.04226294
0.04212786
0.04198735
0.04184129
0.04168957
0.04153217
0.04136910
0.04120044
0.04102633
0.04084701
0.04066276
0.04047398
0.04028112
0.04008476
0.03988553
0.03968420
0.03948160
0.03927870
0.03907653
0.03887627
0.03867914
0.03848649
0.03829975
0.03812042
0.03795007
0.03779032
0.03764284
0.03750930
0.03739139
0.03729078
0.03720907
0.03714782
0.03710849
0.03709238
0.03710069
0.03713442
0.03719434
0.03728101
0.03739473
0.03753551
0.03770305
0.03789674
0.03811561
0.03835838
0.03862338
0.03890861
0.03921172
0.03953003
0.03986055
0.04020000
0.04054483
0.04089129
0.04123547
0.04157331
0.04190072
0.04221359
0.04250787
0.04277966
0.04302525
0.04324119
0.04342436
0.04357204
0.04368196
0.04375234
0.04378192
0.04377003
0.04371655
0.04362195
0.04348730
0.04331418
0.04310471
0.04286150
0.04258754
0.04228620
0.04196112
0.04161613
0.04125521
0.04088236
0.04050156
0.04011668
0.03973143
0.03934928
0.03897343
0.03860675
0.03825179
0.03791070
0.03758531
0.03727705
0.03698700
0.03671590
0.03646419
0.03623202
0.03601929
0.03582568
0.03565069
0.03549370
0.03535398
0.03523072
0.03512309
0.03503025
0.03495139
0.03488575
0.03483262
0.03479134
0.03476132
0.03474197
0.03473267
0.03473268
0.03474100
0.03475622
0.03477627
0.03479823
0.03481818
0.03483137
0.00000000
0.00000000
0.04392115
0.04393409
0.04394339
0.04394771
0.04394577
0.04393658
0.04391959
0.04389458
0.04386162
0.04382097
0.04377302
0.04371826
0.04365718
0.04359027
0.04351798
0.04344070
0.04335876
0.04327241
0.04318179
0.04308700
0.04298806
0.04288491
0.04277745
0.04266553
0.04254900
0.04242766
0.04230132
0.04216981
0.04203297
0.04189067
0.04174282
0.04158937
0.04143033
0.04126577
0.04109581
0.04092065
0.04074056
0.04055590
0.04036709
0.04017467
0.03997923
0.03978149
0.03958226
0.03938243
0.03918302
0.03898513
0.03878996
0.03859881
0.03841306
0.03823417
0.03806369
0.03790321
0.03775435
0.03761878
0.03749817
0.03739416
0.03730837
0.03724235
0.03719756
0.03717534
0.03717689
0.03720323
0.03725519
0.03733336
0.03743806
0.03756938
0.03772705
0.03791052
0.03811890
0.03835095
0.03860509
0.03887936
0.03917150
0.03947890
0.03979863
0.04012748
0.04046197
0.04079843
0.04113300
0.04146169
0.04178047
0.04208528
0.04237214
0.04263718
0.04287674
0.04308740
0.04326610
0.04341013
0.04351724
0.04358568
0.04361419
0.04360212
0.04354934
0.04345633
0.04332413
0.04315432
0.04294899
0.04271071
0.04244244
0.04214750
0.04182948
0.04149215
0.04113943
0.04077524
0.04040348
0.04002794
0.03965224
0.03927975
0.03891359
0.03855654
0.03821105
0.03787921
0.03756273
0.03726299
0.03698101
0.03671747
0.03647277
0.03624702
0.03604009
0.03585165
0.03568121
0.03552815
0.03539172
0.03527115
0.03516562
0.03507430
0.03499638
0.03493110
0.03487774
0.03483564
0.03480416
0.03478271
0.03477065
0.03476727
0.03477168
0.03478272
0.03479885
0.03481807
0.03483799
0.03485614
0.00000000
0.00000000
0.04391179
0.04392844
0.04393903
0.04394333
0.04394082
0.04393104
0.04391370
0.04388872
0.04385620
0.04381642
0.04376974
0.04371659
0.04365744
0.04359272
0.04352286
0.04344819
0.04336902
0.04328556
0.04319795
0.04310627
0.04301050
0.04291060
0.04280646
0.04269793
0.04258484
0.04246701
0.04234424
0.04221635
0.04208318
0.04194460
0.04180050
0.04165082
0.04149555
0.04133474
0.04116848
0.04099694
0.04082037
0.04063907
0.04045345
0.04026397
0.04007121
0.03987583
0.03967859
0.03948035
0.03928208
0.03908485
0.03888980
0.03869822
0.03851146
0.03833096
0.03815823
0.03799486
0.03784247
0.03770273
0.03757732
0.03746789
0.03737610
0.03730351
0.03725162
0.03722182
0.03721534
0.03723326
0.03727646
0.03734559
0.03744104
0.03756293
0.03771109
0.03788501
0.03808386
0.03830647
0.03855130
0.03881648
0.03909978
0.03939865
0.03971019
0.04003125
0.04035839
0.04068796
0.04101614
0.04133896
0.04165240
0.04195242
0.04223505
0.04249642
0.04273287
0.04294098
0.04311766
0.04326023
0.04336640
0.04343441
0.04346301
0.04345152
0.04339980
0.04330833
0.04317814
0.04301080
0.04280840
0.04257351
0.04230909
0.04201845
0.04170517
0.04137303
0.04102591
0.04066773
0.04030237
0.03993358
0.03956494
0.03919978
0.03884116
0.03849180
0.03815409
0.03783004
0.03752132
0.03722922
0.03695469
0.03669835
0.03646052
0.03624128
0.03604044
0.03585763
0.03569232
0.03554386
0.03541150
0.03529444
0.03519183
0.03510285
0.03502668
0.03496255
0.03490973
0.03486755
0.03483538
0.03481264
0.03479876
0.03479311
0.03479501
0.03480365
0.03481805
0.03483707
0.03485955
0.03488462
0.00000000
0.00000000
0.04390906
0.04392876
0.04394081
0.04394551
0.04394283
0.04393269
0.04391504
0.04388996
0.04385765
0.04381841
0.04377261
0.04372069
0.04366308
0.04360019
0.04353242
0.04346009
0.04338347
0.04330274
0.04321803
0.04312938
0.04303677
0.04294013
0.04283934
0.04273423
0.04262461
0.04251030
0.04239108
0.04226675
0.04213715
0.04200212
0.04186152
0.04171529
0.04156337
0.04140578
0.04124260
0.04107394
0.04090001
0.04072108
0.04053749
0.04034969
0.04015819
0.03996362
0.03976668
0.03956820
0.03936912
0.03917046
0.03897336
0.03877907
0.03858893
0.03840438
0.03822695
0.03805822
0.03789984
0.03775351
0.03762094
0.03750384
0.03740389
0.03732273
0.03726191
0.03722289
0.03720696
0.03721528
0.03724879
0.03730821
0.03739401
0.03750637
0.03764518
0.03781001
0.03800007
0.03821425
0.03845107
0.03870869
0.03898493
0.03927727
0.03958284
0.03989850
0.04022083
0.04054619
0.04087076
0.04119056
0.04150156
0.04179970
0.04208098
0.04234150
0.04257758
0.04278575
0.04296288
0.04310625
0.04321353
0.04328293
0.04331315
0.04330348
0.04325377
0.04316447
0.04303659
0.04287172
0.04267194
0.04243982
0.04217836
0.04189088
0.04158098
0.04125247
0.04090927
0.04055530
0.04019448
0.03983056
0.03946712
0.03910751
0.03875474
0.03841153
0.03808023
0.03776280
0.03746085
0.03717562
0.03690798
0.03665850
0.03642742
0.03621474
0.03602021
0.03584341
0.03568375
0.03554052
0.03541291
0.03530010
0.03520121
0.03511538
0.03504178
0.03497960
0.03492811
0.03488665
0.03485460
0.03483143
0.03481665
0.03480978
0.03481037
0.03481796
0.03483208
0.03485231
0.03487842
0.03491056
0.00000000
0.00000000
0.04391491
0.04393664
0.04394974
0.04395473
0.04395188
0.04394136
0.04392332
0.04389797
0.04386562
0.04382661
0.04378136
0.04373031
0.04367390
0.04361252
0.04354656
0.04347631
0.04340202
0.04332386
0.04324191
0.04315620
0.04306668
0.04297324
0.04287574
0.04277399
0.04266778
0.04255689
0.04244107
0.04232013
0.04219383
0.04206200
0.04192449
0.04178117
0.04163198
0.04147687
0.04131587
0.04114908
0.04097663
0.04079875
0.04061574
0.04042798
0.04023596
0.04004024
0.03984151
0.03964056
0.03943828
0.03923569
0.03903393
0.03883424
0.03863796
0.03844657
0.03826161
0.03808471
0.03791757
0.03776194
0.03761959
0.03749231
0.03738186
0.03728994
0.03721820
0.03716817
0.03714124
0.03713864
0.03716140
0.03721031
0.03728591
0.03738847
0.03751792
0.03767390
0.03785568
0.03806219
0.03829199
0.03854328
0.03881390
0.03910134
0.03940277
0.03971504
0.04003472
0.04035818
0.04068155
0.04100085
0.04131201
0.04161092
0.04189354
0.04215592
0.04239430
0.04260517
0.04278533
0.04293196
0.04304271
0.04311569
0.04314956
0.04314354
0.04309745
0.04301169
0.04288726
0.04272571
0.04252915
0.04230015
0.04204171
0.04175722
0.04145030
0.04112482
0.04078473
0.04043404
0.04007668
0.03971647
0.03935704
0.03900175
0.03865365
0.03831545
0.03798949
0.03767773
0.03738174
0.03710271
0.03684146
0.03659849
0.03637398
0.03616785
0.03597978
0.03580927
0.03565565
0.03551814
0.03539589
0.03528799
0.03519353
0.03511159
0.03504131
0.03498185
0.03493249
0.03489254
0.03486143
0.03483867
0.03482385
0.03481668
0.03481690
0.03482439
0.03483911
0.03486119
0.03489103
0.03492947
0.00000000
0.00000000
0.04393035
0.04395301
0.04396649
0.04397140
0.04396814
0.04395704
0.04393840
0.04391255
0.04387989
0.04384082
0.04379581
0.04374532
0.04368979
0.04362964
0.04356521
0.04349680
0.04342464
0.04334885
0.04326950
0.04318658
0.04310000
0.04300963
0.04291529
0.04281674
0.04271373
0.04260602
0.04249332
0.04237538
0.04225194
0.04212278
0.04198771
0.04184654
0.04169916
0.04154549
0.04138549
0.04121920
0.04104671
0.04086819
0.04068388
0.04049413
0.04029936
0.04010011
0.03989704
0.03969091
0.03948261
0.03927315
0.03906368
0.03885547
0.03864991
0.03844850
0.03825284
0.03806464
0.03788568
0.03771778
0.03756282
0.03742266
0.03729918
0.03719417
0.03710938
0.03704644
0.03700683
0.03699188
0.03700269
0.03704015
0.03710486
0.03719716
0.03731705
0.03746421
0.03763798
0.03783730
0.03806079
0.03830666
0.03857277
0.03885664
0.03915541
0.03946596
0.03978484
0.04010838
0.04043270
0.04075379
0.04106750
0.04136971
0.04165628
0.04192320
0.04216664
0.04238298
0.04256895
0.04272165
0.04283860
0.04291784
0.04295794
0.04295805
0.04291790
0.04283783
0.04271880
0.04256234
0.04237052
0.04214591
0.04189155
0.04161083
0.04130745
0.04098530
0.04064842
0.04030088
0.03994669
0.03958976
0.03923376
0.03888212
0.03853796
0.03820402
0.03788266
0.03757586
0.03728517
0.03701177
0.03675644
0.03651963
0.03630145
0.03610176
0.03592017
0.03575608
0.03560875
0.03547733
0.03536087
0.03525841
0.03516895
0.03509154
0.03502525
0.03496922
0.03492270
0.03488500
0.03485558
0.03483398
0.03481991
0.03481318
0.03481376
0.03482177
0.03483752
0.03486155
0.03489470
0.03493823
0.00000000
0.00000000
0.04395584
0.04397840
0.04399153
0.04399582
0.04399175
0.04397975
0.04396023
0.04393360
0.04390035
0.04386094
0.04381589
0.04376567
0.04371074
0.04365153
0.04358839
0.04352158
0.04345130
0.04337767
0.04330071
0.04322036
0.04313652
0.04304898
0.04295752
0.04286187
0.04276173
0.04265679
0.04254672
0.04243121
0.04230996
0.04218268
0.04204912
0.04190904
0.04176226
0.04160864
0.04144808
0.04128056
0.04110609
0.04092481
0.04073688
0.04054262
0.04034242
0.04013678
0.03992634
0.03971186
0.03949424
0.03927452
0.03905388
0.03883364
0.03861526
0.03840031
0.03819049
0.03798760
0.03779352
0.03761019
0.03743958
0.03728371
0.03714453
0.03702398
0.03692390
0.03684603
0.03679196
0.03676310
0.03676064
0.03678555
0.03683851
0.03691991
0.03702982
0.03716796
0.03733370
0.03752605
0.03774363
0.03798468
0.03824710
0.03852838
0.03882570
0.03913590
0.03945555
0.03978094
0.04010816
0.04043315
0.04075174
0.04105970
0.04135286
0.04162709
0.04187848
0.04210332
0.04229821
0.04246013
0.04258651
0.04267524
0.04272478
0.04273416
0.04270302
0.04263161
0.04252080
0.04237205
0.04218741
0.04196942
0.04172112
0.04144590
0.04114751
0.04082991
0.04049719
0.04015350
0.03980296
0.03944954
0.03909703
0.03874895
0.03840847
0.03807844
0.03776126
0.03745894
0.03717307
0.03690482
0.03665497
0.03642394
0.03621180
0.03601833
0.03584309
0.03568541
0.03554445
0.03541928
0.03530888
0.03521219
0.03512816
0.03505575
0.03499398
0.03494196
0.03489888
0.03486406
0.03483696
0.03481718
0.03480447
0.03479877
0.03480021
0.03480910
0.03482601
0.03485178
0.03488754
0.03493479
0.00000000
0.00000000
0.04399155
0.04401307
0.04402508
0.04402816
0.04402283
0.04400955
0.04398881
0.04396111
0.04392699
0.04388696
0.04384159
0.04379137
0.04373679
0.04367827
0.04361614
0.04355067
0.04348203
0.04341029
0.04333544
0.04325738
0.04317594
0.04309088
0.04300192
0.04290871
0.04281091
0.04270813
0.04259998
0.04248609
0.04236608
0.04223960
0.04210631
0.04196592
0.04181816
0.04166282
0.04149973
0.04132879
0.04114997
0.04096331
0.04076898
0.04056722
0.04035839
0.04014301
0.03992169
0.03969524
0.03946457
0.03923079
0.03899513
0.03875901
0.03852396
0.03829168
0.03806399
0.03784279
0.03763011
0.03742802
0.03723863
0.03706407
0.03690644
0.03676779
0.03665008
0.03655516
0.03648472
0.03644025
0.03642305
0.03643413
0.03647427
0.03654390
0.03664315
0.03677179
0.03692923
0.03711451
0.03732629
0.03756284
0.03782205
0.03810145
0.03839823
0.03870922
0.03903098
0.03935979
0.03969171
0.04002264
0.04034835
0.04066456
0.04096699
0.04125147
0.04151393
0.04175057
0.04195785
0.04213261
0.04227212
0.04237414
0.04243697
0.04245949
0.04244120
0.04238222
0.04228329
0.04214580
0.04197169
0.04176347
0.04152413
0.04125709
0.04096608
0.04065511
0.04032836
0.03999003
0.03964435
0.03929540
0.03894707
0.03860299
0.03826645
0.03794038
0.03762728
0.03732924
0.03704789
0.03678444
0.03653968
0.03631404
0.03610757
0.03592002
0.03575087
0.03559940
0.03546470
0.03534576
0.03524148
0.03515071
0.03507232
0.03500520
0.03494830
0.03490068
0.03486149
0.03483003
0.03480575
0.03478827
0.03477739
0.03477314
0.03477574
0.03478568
0.03480368
0.03483078
0.03486831
0.03491789
0.00000000
0.00000000
0.04403745
0.04405707
0.04406724
0.04406852
0.04406143
0.04404647
0.04402418
0.04399510
0.04395983
0.04391893
0.04387297
0.04382251
0.04376802
0.04370992
0.04364854
0.04358413
0.04351682
0.04344665
0.04337356
0.04329740
0.04321793
0.04313486
0.04304783
0.04295643
0.04286023
0.04275877
0.04265158
0.04253821
0.04241820
0.04229110
0.04215650
0.04201400
0.04186327
0.04170400
0.04153596
0.04135895
0.04117290
0.04097780
0.04077376
0.04056101
0.04033991
0.04011096
0.03987483
0.03963234
0.03938451
0.03913249
0.03887764
0.03862148
0.03836568
0.03811206
0.03786259
0.03761933
0.03738445
0.03716016
0.03694874
0.03675244
0.03657350
0.03641409
0.03627630
0.03616208
0.03607320
0.03601128
0.03597765
0.03597343
0.03599944
0.03605618
0.03614382
0.03626220
0.03641075
0.03658857
0.03679433
0.03702636
0.03728257
0.03756052
0.03785740
0.03817007
0.03849508
0.03882871
0.03916701
0.03950583
0.03984090
0.04016787
0.04048240
0.04078020
0.04105709
0.04130913
0.04153264
0.04172429
0.04188118
0.04200088
0.04208150
0.04212173
0.04212089
0.04207891
0.04199640
0.04187457
0.04171527
0.04152090
0.04129437
0.04103908
0.04075875
0.04045741
0.04013927
0.03980864
0.03946981
0.03912699
0.03878418
0.03844514
0.03811329
0.03779169
0.03748295
0.03718926
0.03691235
0.03665350
0.03641355
0.03619295
0.03599176
0.03580972
0.03564629
0.03550069
0.03537198
0.03525905
0.03516073
0.03507581
0.03500306
0.03494130
0.03488941
0.03484640
0.03481135
0.03478354
0.03476239
0.03474753
0.03473878
0.03473622
0.03474013
0.03475111
0.03477000
0.03479794
0.03483637
0.03488695
0.00000000
0.00000000
0.04409342
0.04411035
0.04411800
0.04411690
0.04410757
0.04409053
0.04406635
0.04403561
0.04399892
0.04395689
0.04391012
0.04385917
0.04380451
0.04374657
0.04368566
0.04362198
0.04355566
0.04348666
0.04341488
0.04334011
0.04326204
0.04318030
0.04309446
0.04300401
0.04290844
0.04280720
0.04269973
0.04258547
0.04246386
0.04233436
0.04219645
0.04204965
0.04189352
0.04172766
0.04155176
0.04136557
0.04116893
0.04096181
0.04074429
0.04051659
0.04027909
0.04003233
0.03977703
0.03951410
0.03924464
0.03896993
0.03869147
0.03841090
0.03813007
0.03785096
0.03757569
0.03730650
0.03704571
0.03679572
0.03655893
0.03633774
0.03613454
0.03595162
0.03579117
0.03565524
0.03554571
0.03546426
0.03541232
0.03539107
0.03540138
0.03544382
0.03551862
0.03562565
0.03576442
0.03593405
0.03613329
0.03636048
0.03661359
0.03689022
0.03718760
0.03750261
0.03783181
0.03817150
0.03851772
0.03886630
0.03921294
0.03955322
0.03988273
0.04019707
0.04049195
0.04076327
0.04100720
0.04122021
0.04139919
0.04154150
0.04164502
0.04170822
0.04173016
0.04171058
0.04164983
0.04154896
0.04140963
0.04123410
0.04102517
0.04078615
0.04052071
0.04023289
0.03992691
0.03960714
0.03927795
0.03894366
0.03860839
0.03827606
0.03795022
0.03763407
0.03733039
0.03704149
0.03676922
0.03651497
0.03627966
0.03606382
0.03586754
0.03569059
0.03553242
0.03539224
0.03526906
0.03516174
0.03506904
0.03498967
0.03492235
0.03486580
0.03481886
0.03478043
0.03474957
0.03472550
0.03470760
0.03469549
0.03468900
0.03468820
0.03469345
0.03470535
0.03472482
0.03475306
0.03479154
0.03484191
0.00000000
0.00000000
0.04415926
0.04417276
0.04417725
0.04417323
0.04416120
0.04414171
0.04411531
0.04408263
0.04404429
0.04400091
0.04395310
0.04390142
0.04384634
0.04378827
0.04372750
0.04366420
0.04359843
0.04353012
0.04345910
0.04338508
0.04330768
0.04322643
0.04314082
0.04305024
0.04295407
0.04285166
0.04274234
0.04262543
0.04250026
0.04236618
0.04222256
0.04206881
0.04190438
0.04172880
0.04154166
0.04134267
0.04113161
0.04090843
0.04067319
0.04042616
0.04016774
0.03989854
0.03961939
0.03933130
0.03903550
0.03873343
0.03842674
0.03811725
0.03780699
0.03749813
0.03719296
0.03689391
0.03660346
0.03632418
0.03605861
0.03580932
0.03557881
0.03536948
0.03518364
0.03502344
0.03489085
0.03478761
0.03471523
0.03467496
0.03466774
0.03469419
0.03475460
0.03484891
0.03497669
0.03513711
0.03532899
0.03555073
0.03580037
0.03607554
0.03637354
0.03669130
0.03702543
0.03737223
0.03772776
0.03808786
0.03844819
0.03880430
0.03915169
0.03948588
0.03980244
0.04009713
0.04036591
0.04060508
0.04081128
0.04098162
0.04111371
0.04120573
0.04125648
0.04126539
0.04123257
0.04115879
0.04104547
0.04089469
0.04070906
0.04049176
0.04024638
0.03997689
0.03968750
0.03938262
0.03906669
0.03874411
0.03841915