# vtk DataFile Version 3.0
particle point data
ASCII
DATASET STRUCTURED_GRID
DIMENSIONS 143 143 2
POINTS 40898 double
0.00000000 0.00000000 0.00000000
0.00714286 0.00000000 0.00000000
0.01428571 0.00000000 0.00000000
0.02142857 0.00000000 0.00000000
0.02857143 0.00000000 0.00000000
0.03571429 0.00000000 0.00000000
0.04285714 0.00000000 0.00000000
0.05000000 0.00000000 0.00000000
0.05714286 0.00000000 0.00000000
0.06428571 0.00000000 0.00000000
0.07142857 0.00000000 0.00000000
0.07857143 0.00000000 0.00000000
0.08571429 0.00000000 0.00000000
0.09285714 0.00000000 0.00000000
0.10000000 0.00000000 0.00000000
0.10714286 0.00000000 0.00000000
0.11428571 0.00000000 0.00000000
0.12142857 0.00000000 0.00000000
0.12857143 0.00000000 0.00000000
0.13571429 0.00000000 0.00000000
0.14285714 0.00000000 0.00000000
0.15000000 0.00000000 0.00000000
0.15714286 0.00000000 0.00000000
0.16428571 0.00000000 0.00000000
0.17142857 0.00000000 0.00000000
0.17857143 0.00000000 0.00000000
0.18571429 0.00000000 0.00000000
0.19285714 0.00000000 0.00000000
0.20000000 0.00000000 0.00000000
0.20714286 0.00000000 0.00000000
0.21428571 0.00000000 0.00000000
0.22142857 0.00000000 0.00000000
0.22857143 0.00000000 0.00000000
0.23571429 0.00000000 0.00000000
0.24285714 0.00000000 0.00000000
0.25000000 0.00000000 0.00000000
0.25714286 0.00000000 0.00000000
0.26428571 0.00000000 0.00000000
0.27142857 0.00000000 0.00000000
0.27857143 0.00000000 0.00000000
0.28571429 0.00000000 0.00000000
0.29285714 0.00000000 0.00000000
0.30000000 0.00000000 0.00000000
0.30714286 0.00000000 0.00000000
0.31428571 0.00000000 0.00000000
0.32142857 0.00000000 0.00000000
0.32857143 0.00000000 0.00000000
0.33571429 0.00000000 0.00000000
0.34285714 0.00000000 0.00000000
0.35000000 0.00000000 0.00000000
0.35714286 0.00000000 0.00000000
0.36428571 0.00000000 0.00000000
0.37142857 0.00000000 0.00000000
0.37857143 0.00000000 0.00000000
0.38571429 0.00000000 0.00000000
0.39285714 0.00000000 0.00000000
0.40000000 0.00000000 0.00000000
0.40714286 0.00000000 0.00000000
0.41428571 0.00000000 0.00000000
0.42142857 0.00000000 0.00000000
0.42857143 0.00000000 0.00000000
0.43571429 0.00000000 0.00000000
0.44285714 0.00000000 0.00000000
0.45000000 0.00000000 0.00000000
0.45714286 0.00000000 0.00000000
0.46428571 0.00000000 0.00000000
0.47142857 0.00000000 0.00000000
0.47857143 0.00000000 0.00000000
0.48571429 0.00000000 0.00000000
0.49285714 0.00000000 0.00000000
0.50000000 0.00000000 0.00000000
0.50714286 0.00000000 0.00000000
0.51428571 0.00000000 0.00000000
0.52142857 0.00000000 0.00000000
0.52857143 0.00000000 0.00000000
0.53571429 0.00000000 0.00000000
0.54285714 0.00000000 0.00000000
0.55000000 0.00000000 0.00000000
0.55714286 0.00000000 0.00000000
0.56428571 0.00000000 0.00000000
0.57142857 0.00000000 0.00000000
0.57857143 0.00000000 0.00000000
0.58571429 0.00000000 0.00000000
0.59285714 0.00000000 0.00000000
0.60000000 0.00000000 0.00000000
0.60714286 0.00000000 0.00000000
0.61428571 0.00000000 0.00000000
0.62142857 0.00000000 0.00000000
0.62857143 0.00000000 0.00000000
0.63571429 0.00000000 0.00000000
0.64285714 0.00000000 0.00000000
0.65000000 0.00000000 0.00000000
0.65714286 0.00000000 0.00000000
0.66428571 0.00000000 0.00000000
0.67142857 0.00000000 0.00000000
0.67857143 0.00000000 0.00000000
0.68571429 0.00000000 0.00000000
0.69285714 0.00000000 0.00000000
0.70000000 0.00000000 0.00000000
0.70714286 0.00000000 0.00000000
0.71428571 0.00000000 0.00000000
0.72142857 0.00000000 0.00000000
0.72857143 0.00000000 0.00000000
0.73571429 0.00000000 0.00000000
0.74285714 0.00000000 0.00000000
0.75000000 0.00000000 0.00000000
0.75714286 0.00000000 0.00000000
0.76428571 0.00000000 0.00000000
0.77142857 0.00000000 0.00000000
0.77857143 0.00000000 0.00000000
0.78571429 0.00000000 0.00000000
0.79285714 0.00000000 0.00000000
0.80000000 0.00000000 0.00000000
0.80714286 0.00000000 0.00000000
0.81428571 0.00000000 0.00000000
0.82142857 0.00000000 0.00000000
0.82857143 0.00000000 0.00000000
0.83571429 0.00000000 0.00000000
0.84285714 0.00000000 0.00000000
0.85000000 0.00000000 0.00000000
0.85714286 0.00000000 0.00000000
0.86428571 0.00000000 0.00000000
0.87142857 0.00000000 0.00000000
0.87857143 0.00000000 0.00000000
0.88571429 0.00000000 0.00000000
0.89285714 0.00000000 0.00000000
0.90000000 0.00000000 0.00000000
0.90714286 0.00000000 0.00000000
0.91428571 0.00000000 0.00000000
0.92142857 0.00000000 0.00000000
0.92857143 0.00000000 0.00000000
0.93571429 0.00000000 0.00000000
0.94285714 0.00000000 0.00000000
0.95000000 0.00000000 0.00000000
0.95714286 0.00000000 0.00000000
0.96428571 0.00000000 0.00000000
0.97142857 0.00000000 0.00000000
0.97857143 0.00000000 0.00000000
0.98571429 0.00000000 0.00000000
0.99285714 0.00000000 0.00000000
1.00000000 0.00000000 0.00000000
1.00714286 0.00000000 0.00000000
1.01428571 0.00000000 0.00000000
0.00000000 0.00714286 0.00000000
0.00714286 0.00714286 0.00000000
0.01428571 0.00714286 0.00000000
0.02142857 0.00714286 0.00000000
0.02857143 0.00714286 0.00000000
0.03571429 0.00714286 0.00000000
0.04285714 0.00714286 0.00000000
0.05000000 0.00714286 0.00000000
0.05714286 0.00714286 0.00000000
0.06428571 0.00714286 0.00000000
0.07142857 0.00714286 0.00000000
0.07857143 0.00714286 0.00000000
0.08571429 0.00714286 0.00000000
0.09285714 0.00714286 0.00000000
0.10000000 0.00714286 0.00000000
0.10714286 0.00714286 0.00000000
0.11428571 0.00714286 0.00000000
0.12142857 0.00714286 0.00000000
0.12857143 0.00714286 0.00000000
0.13571429 0.00714286 0.00000000
0.14285714 0.00714286 0.00000000
0.15000000 0.00714286 0.00000000
0.15714286 0.00714286 0.00000000
0.16428571 0.00714286 0.00000000
0.17142857 0.00714286 0.00000000
0.17857143 0.00714286 0.00000000
0.18571429 0.00714286 0.00000000
0.19285714 0.00714286 0.00000000
0.20000000 0.00714286 0.00000000
0.20714286 0.00714286 0.00000000
0.21428571 0.00714286 0.00000000
0.22142857 0.00714286 0.00000000
0.22857143 0.00714286 0.00000000
0.23571429 0.00714286 0.00000000
0.24285714 0.00714286 0.00000000
0.25000000 0.00714286 0.00000000
0.25714286 0.00714286 0.00000000
0.26428571 0.00714286 0.00000000
0.27142857 0.00714286 0.00000000
0.27857143 0.00714286 0.00000000
0.28571429 0.00714286 0.00000000
0.29285714 0.00714286 0.00000000
0.30000000 0.00714286 0.00000000
0.30714286 0.00714286 0.00000000
0.31428571 0.00714286 0.00000000
0.32142857 0.00714286 0.00000000
0.32857143 0.00714286 0.00000000
0.33571429 0.00714286 0.00000000
0.34285714 0.00714286 0.00000000
0.35000000 0.00714286 0.00000000
0.35714286 0.00714286 0.00000000
0.36428571 0.00714286 0.00000000
0.37142857 0.00714286 0.00000000
0.37857143 0.00714286 0.00000000
0.38571429 0.00714286 0.00000000
0.39285714 0.00714286 0.00000000
0.40000000 0.00714286 0.00000000
0.40714286 0.00714286 0.00000000
0.41428571 0.00714286 0.00000000
0.42142857 0.00714286 0.00000000
0.42857143 0.00714286 0.00000000
0.43571429 0.00714286 0.00000000
0.44285714 0.00714286 0.00000000
0.45000000 0.00714286 0.00000000
0.45714286 0.00714286 0.00000000
0.46428571 0.00714286 0.00000000
0.47142857 0.00714286 0.00000000
0.47857143 0.00714286 0.00000000
0.48571429 0.00714286 0.00000000
0.49285714 0.00714286 0.00000000
0.50000000 0.00714286 0.00000000
0.50714286 0.00714286 0.00000000
0.51428571 0.00714286 0.00000000
0.52142857 0.00714286 0.00000000
0.52857143 0.00714286 0.00000000
0.53571429 0.00714286 0.00000000
0.54285714 0.00714286 0.00000000
0.55000000 0.00714286 0.00000000
0.55714286 0.00714286 0.00000000
0.56428571 0.00714286 0.00000000
0.57142857 0.00714286 0.00000000
0.57857143 0.00714286 0.00000000
0.58571429 0.00714286 0.00000000
0.59285714 0.00714286 0.00000000
0.60000000 0.00714286 0.00000000
0.60714286 0.00714286 0.00000000
0.61428571 0.00714286 0.00000000
0.62142857 0.00714286 0.00000000
0.62857143 0.00714286 0.00000000
0.63571429 0.00714286 0.00000000
0.64285714 0.00714286 0.00000000
0.65000000 0.00714286 0.00000000
0.65714286 0.00714286 0.00000000
0.66428571 0.00714286 0.00000000
0.67142857 0.00714286 0.00000000
0.67857143 0.00714286 0.00000000
0.68571429 0.00714286 0.00000000
0.69285714 0.00714286 0.00000000
0.70000000 0.00714286 0.00000000
0.70714286 0.00714286 0.00000000
0.71428571 0.00714286 0.00000000
0.72142857 0.00714286 0.00000000
0.72857143 0.00714286 0.00000000
0.73571429 0.00714286 0.00000000
0.74285714 0.00714286 0.00000000
0.75000000 0.00714286 0.00000000
0.75714286 0.00714286 0.00000000
0.76428571 0.00714286 0.00000000
0.77142857 0.00714286 0.00000000
0.77857143 0.00714286 0.00000000
0.78571429 0.00714286 0.00000000
0.79285714 0.00714286 0.00000000
0.80000000 0.00714286 0.00000000
0.80714286 0.00714286 0.00000000
0.81428571 0.00714286 0.00000000
0.82142857 0.00714286 0.00000000
0.82857143 0.00714286 0.00000000
0.83571429 0.00714286 0.00000000
0.84285714 0.00714286 0.00000000
0.85000000 0.00714286 0.00000000
0.85714286 0.00714286 0.00000000
0.86428571 0.00714286 0.00000000
0.87142857 0.00714286 0.00000000
0.87857143 0.00714286 0.00000000
0.88571429 0.00714286 0.00000000
0.89285714 0.00714286 0.00000000
0.90000000 0.00714286 0.00000000
0.90714286 0.00714286 0.00000000
0.91428571 0.00714286 0.00000000
0.92142857 0.00714286 0.00000000
0.92857143 0.00714286 0.00000000
0.93571429 0.00714286 0.00000000
0.94285714 0.00714286 0.00000000
0.95000000 0.00714286 0.00000000
0.95714286 0.00714286 0.00000000
0.96428571 0.00714286 0.00000000
0.97142857 0.00714286 0.00000000
0.97857143 0.00714286 0.00000000
0.98571429 0.00714286 0.00000000
0.99285714 0.00714286 0.00000000
1.00000000 0.00714286 0.00000000
1.00714286 0.00714286 0.00000000
1.01428571 0.00714286 0.00000000
0.00000000 0.01428571 0.00000000
0.00714286 0.01428571 0.00000000
0.01428571 0.01428571 0.00000000
0.02142857 0.01428571 0.00000000
0.02857143 0.01428571 0.00000000
0.03571429 0.01428571 0.00000000
0.04285714 0.01428571 0.00000000
0.05000000 0.01428571 0.00000000
0.05714286 0.01428571 0.00000000
0.06428571 0.01428571 0.00000000
0.07142857 0.01428571 0.00000000
0.07857143 0.01428571 0.00000000
0.08571429 0.01428571 0.00000000
[...]
CELL_DATA 20164
SCALARS pressure double 
 LOOKUP_TABLE default
0.00000000
0.00000000
0.00000000
0.00000000
0.00000000
0.00000000
0.00000000
0.00000000
0.00000000
0.00000000
0.00000000
0.00000000
0.00000000
0.00000000
0.00000000
0.00000000
0.00000000
0.00000000
0.00000000
0.00000000
0.00000000
0.00000000
0.00000000
0.00000000
0.00000000
0.00000000
0.00000000
0.00000000
0.00000000
0.00000000
0.00000000
0.00000000
0.00000000
0.00000000
0.00000000
0.00000000
0.00000000
0.00000000
0.00000000
0.00000000
0.00000000
0.00000000
0.00000000
0.00000000
0.00000000
0.00000000
0.00000000
0.00000000
0.00000000
0.00000000
0.00000000
0.00000000
0.00000000
0.00000000
0.00000000
0.00000000
0.00000000
0.00000000
0.00000000
0.00000000
0.00000000
0.00000000
0.00000000
0.00000000
0.00000000
0.00000000
0.00000000
0.00000000
0.00000000
0.00000000
0.00000000
0.00000000
0.00000000
0.00000000
0.00000000
0.00000000
0.00000000
0.00000000
0.00000000
0.00000000
0.00000000
0.00000000
0.00000000
0.00000000
0.00000000
0.00000000
0.00000000
0.00000000
0.00000000
0.00000000
0.00000000
0.00000000
0.00000000
0.00000000
0.00000000
0.00000000
0.00000000
0.00000000
0.00000000
0.00000000
0.00000000
0.00000000
0.00000000
0.00000000
0.00000000
0.00000000
0.00000000
0.00000000
0.00000000
0.00000000
0.00000000
0.00000000
0.00000000
0.00000000
0.00000000
0.00000000
0.00000000
0.00000000
0.00000000
0.00000000
0.00000000
0.00000000
0.00000000
0.00000000
0.00000000
0.00000000
0.00000000
0.00000000
0.00000000
0.00000000
0.00000000
0.00000000
0.00000000
0.00000000
0.00000000
0.00000000
0.00000000
0.00000000
0.00000000
0.00000000
0.00000000
0.00000000
0.00000000
0.03856860
0.03857409
0.03857970
0.03858208
0.03857947
0.03857114
0.03855689
0.03853683
0.03851123
0.03848046
0.03844486
0.03840481
0.03836063
0.03831260
0.03826099
0.03820599
0.03814777
0.03808644
0.03802209
0.03795479
0.03788454
0.03781136
0.03773524
0.03765615
0.03757405
0.03748893
0.03740073
0.03730945
0.03721507
0.03711760
0.03701706
0.03691351
0.03680704
0.03669775
0.03658581
0.03647140
0.03635477
0.03623622
0.03611608
0.03599474
0.03587266
0.03575035
0.03562837
0.03550736
0.03538800
0.03527105
0.03515729
0.03504760
0.03494287
0.03484406
0.03475214
0.03466813
0.03459306
0.03452796
0.03447386
0.03443176
0.03440263
0.03438741
0.03438692
0.03440193
0.03443309
0.03448094
0.03454586
0.03462808
0.03472763
0.03484439
0.03497799
0.03512788
0.03529325
0.03547309
0.03566614
0.03587091
0.03608569
0.03630855
0.03653736
0.03676980
0.03700342
0.03723562
0.03746370
0.03768491
0.03789647
0.03809564
0.03827973
0.03844614
0.03859247
0.03871649
0.03881621
0.03888994
0.03893627
0.03895416
0.03894293
0.03890228
0.03883230
0.03873346
0.03860662
0.03845301
0.03827418
0.03807201
0.03784864
0.03760644
0.03734795
0.03707586
0.03679293
0.03650194
0.03620565
0.03590677
0.03560786
0.03531138
0.03501956
0.03473446
0.03445790
0.03419144
0.03393643
0.03369396
0.03346486
0.03324976
0.03304906
0.03286296
0.03269148
0.03253452
0.03239181
0.03226299
0.03214765
0.03204530
0.03195542
0.03187752
0.03181110
0.03175568
0.03171086
0.03167625
0.03165149
0.03163625
0.03163014
0.03163262
0.03164293
0.03165984
0.03168139
0.03170449
0.03172450
0.03173518
0.00000000
0.00000000
0.03856311
0.03856860
0.03857250
0.03857311
0.03856928
0.03856036
0.03854613
0.03852661
0.03850194
0.03847240
0.03843827
0.03839983
0.03835738
0.03831116
0.03826141
0.03820830
0.03815200
0.03809261
0.03803023
0.03796492
0.03789670
0.03782558
0.03775157
0.03767464
0.03759477
0.03751194
0.03742612
0.03733730
0.03724547
0.03715063
0.03705282
0.03695209
0.03684851
0.03674221
0.03663332
0.03652203
0.03640856
0.03629321
0.03617628
0.03605815
0.03593925
0.03582006
0.03570113
0.03558305
0.03546648
0.03535213
0.03524078
0.03513323
0.03503037
0.03493310
0.03484237
0.03475916
0.03468445
0.03461924
0.03456455
0.03452133
0.03449054
0.03447307
0.03446976
0.03448134
0.03450847
0.03455166
0.03461131
0.03468766
0.03478076
0.03489049
0.03501654
0.03515836
0.03531520
0.03548609
0.03566982
0.03586497
0.03606988
0.03628270
0.03650137
0.03672365
0.03694716
0.03716939
0.03738773
0.03759951
0.03780205
0.03799266
0.03816875
0.03832782
0.03846752
0.03858568
0.03868039
0.03875000
0.03879316
0.03880885
0.03879643
0.03875560
0.03868645
0.03858945
0.03846544
0.03831560
0.03814144
0.03794479
0.03772771
0.03749250
0.03724162
0.03697767
0.03670329
0.03642118
0.03613399
0.03584433
0.03555466
0.03526734
0.03498453
0.03470817
0.03444002
0.03418159
0.03393415
0.03369874
0.03347618
0.03326705
0.03307175
0.03289047
0.03272324
0.03256995
0.03243036
0.03230415
0.03219091
0.03209019
0.03200149
0.03192432
0.03185821
0.03180267
0.03175728
0.03172162
0.03169529
0.03167788
0.03166891
0.03166780
0.03167372
0.03168550
0.03170140
0.03171903
0.03173514
0.03174586
0.00000000
0.00000000
0.03855750
0.03856471
0.03856859
0.03856857
0.03856412
0.03855486
0.03854064
0.03852148
0.03849750
0.03846891
0.03843594
0.03839885
0.03835787
0.03831324
0.03826516
0.03821379
0.03815929
0.03810176
0.03804129
0.03797792
0.03791171
0.03784265
0.03777075
0.03769600
0.03761837
0.03753784
0.03745440
0.03736802
0.03727870
0.03718644
0.03709127
0.03699324
0.03689241
0.03678890
0.03668283
0.03657437
0.03646374
0.03635120
0.03623704
0.03612161
0.03600532
0.03588863
0.03577205
0.03565615
0.03554155
0.03542894
0.03531905
0.03521268
0.03511066
0.03501387
0.03492324
0.03483970
0.03476424
0.03469783
0.03464145
0.03459607
0.03456262
0.03454200
0.03453502
0.03454245
0.03456494
0.03460302
0.03465711
0.03472746
0.03481416
0.03491713
0.03503607
0.03517050
0.03531970
0.03548275
0.03565849
0.03584555
0.03604232
0.03624700
0.03645759
0.03667192
0.03688766
0.03710233
0.03731340
0.03751823
0.03771420
0.03789868
0.03806910
0.03822301
0.03835809
0.03847223
0.03856351
0.03863033
0.03867135
0.03868557
0.03867235
0.03863141
0.03856283
0.03846708
0.03834497
0.03819769
0.03802672
0.03783386
0.03762114
0.03739081
0.03714531
0.03688716
0.03661897
0.03634337
0.03606297
0.03578028
0.03549774
0.03521761
0.03494198
0.03467275
0.03441160
0.03415999
0.03391913
0.03369002
0.03347342
0.03326990
0.03307979
0.03290330
0.03274042
0.03259103
0.03245490
0.03233170
0.03222102
0.03212240
0.03203538
0.03195944
0.03189412
0.03183892
0.03179340
0.03175713
0.03172969
0.03171063
0.03169948
0.03169567
0.03169846
0.03170688
0.03171963
0.03173505
0.03175116
0.03176590
0.00000000
0.00000000
0.03855516
0.03856413
0.03856853
0.03856843
0.03856370
0.03855424
0.03854002
0.03852110
0.03849761
0.03846974
0.03843770
0.03840171
0.03836199
0.03831875
0.03827217
0.03822240
0.03816959
0.03811382
0.03805518
0.03799372
0.03792947
0.03786245
0.03779264
0.03772005
0.03764464
0.03756640
0.03748529
0.03740130
0.03731442
0.03722464
0.03713199
0.03703650
0.03693822
0.03683725
0.03673370
0.03662774
0.03651954
0.03640934
0.03629742
0.03618410
0.03606977
0.03595485
0.03583982
0.03572523
0.03561168
0.03549981
0.03539033
0.03528402
0.03518168
0.03508418
0.03499242
0.03490733
0.03482988
0.03476103
0.03470177
0.03465306
0.03461585
0.03459103
0.03457946
0.03458191
0.03459905
0.03463147
0.03467959
0.03474371
0.03482397
0.03492031
0.03503250
0.03516007
0.03530238
0.03545853
0.03562742
0.03580771
0.03599785
0.03619607
0.03640041
0.03660874
0.03681874
0.03702799
0.03723396
0.03743407
0.03762567
0.03780618
0.03797303
0.03812378
0.03825612
0.03836792
0.03845730
0.03852264
0.03856259
0.03857616
0.03856271
0.03852193
0.03845393
0.03835915
0.03823842
0.03809290
0.03792408
0.03773375
0.03752393
0.03729688
0.03705500
0.03680082
0.03653692
0.03626591
0.03599038
0.03571281
0.03543560
0.03516097
0.03489097
0.03462747
0.03437209
0.03412624
0.03389108
0.03366757
0.03345642
0.03325815
0.03307307
0.03290131
0.03274288
0.03259760
0.03246523
0.03234540
0.03223771
0.03214167
0.03205681
0.03198260
0.03191856
0.03186420
0.03181905
0.03178267
0.03175464
0.03173453
0.03172191
0.03171628
0.03171708
0.03172360
0.03173500
0.03175031
0.03176852
0.03178888
0.00000000
0.00000000
0.03855793
0.03856808
0.03857294
0.03857284
0.03856794
0.03855830
0.03854401
0.03852521
0.03850203
0.03847469
0.03844336
0.03840828
0.03836963
0.03832760
0.03828236
0.03823406
0.03818281
0.03812871
0.03807183
0.03801220
0.03794987
0.03788483
0.03781708
0.03774659
0.03767335
0.03759732
0.03751847
0.03743677
0.03735220
0.03726475
0.03717442
0.03708123
0.03698522
0.03688646
0.03678505
0.03668113
0.03657484
0.03646641
0.03635609
0.03624416
0.03613098
0.03601695
0.03590252
0.03578822
0.03567460
0.03556229
0.03545200
0.03534445
0.03524046
0.03514087
0.03504658
0.03495852
0.03487766
0.03480498
0.03474146
0.03468811
0.03464588
0.03461570
0.03459847
0.03459498
0.03460596
0.03463203
0.03467366
0.03473121
0.03480484
0.03489456
0.03500018
0.03512129
0.03525727
0.03540728
0.03557026
0.03574490
0.03592967
0.03612286
0.03632251
0.03652650
0.03673255
0.03693824
0.03714104
0.03733836
0.03752757
0.03770605
0.03787125
0.03802068
0.03815204
0.03826318
0.03835218
0.03841739
0.03845747
0.03847140
0.03845850
0.03841849
0.03835142
0.03825775
0.03813830
0.03799423
0.03782705
0.03763853
0.03743073
0.03720589
0.03696645
0.03671493
0.03645394
0.03618609
0.03591397
0.03564007
0.03536677
0.03509628
0.03483066
0.03457171
0.03432105
0.03408004
0.03384982
0.03363129
0.03342512
0.03323177
0.03305152
0.03288446
0.03273053
0.03258954
0.03246118
0.03234507
0.03224075
0.03214773
0.03206549
0.03199351
0.03193126
0.03187823
0.03183397
0.03179802
0.03176997
0.03174943
0.03173604
0.03172941
0.03172916
0.03173487
0.03174611
0.03176246
0.03178367
0.03180979
0.00000000
0.00000000
0.03856668
0.03857728
0.03858223
0.03858198
0.03857680
0.03856690
0.03855244
0.03853361
0.03851059
0.03848359
0.03845281
0.03841844
0.03838068
0.03833971
0.03829567
0.03824869
0.03819890
0.03814636
0.03809113
0.03803326
0.03797276
0.03790962
0.03784384
0.03777538
0.03770420
0.03763027
0.03755354
0.03747396
0.03739150
0.03730614
0.03721785
0.03712663
0.03703250
0.03693552
0.03683574
0.03673327
0.03662825
0.03652085
0.03641130
0.03629986
0.03618685
0.03607264
0.03595766
0.03584239
0.03572739
0.03561327
0.03550069
0.03539040
0.03528320
0.03517992
0.03508149
0.03498883
0.03490294
0.03482483
0.03475551
0.03469602
0.03464735
0.03461049
0.03458637
0.03457585
0.03457971
0.03459860
0.03463309
0.03468355
0.03475024
0.03483319
0.03493227
0.03504712
0.03517716
0.03532160
0.03547938
0.03564925
0.03582971
0.03601904
0.03621531
0.03641640
0.03662003
0.03682378
0.03702510
0.03722138
0.03740998
0.03758825
0.03775359
0.03790351
0.03803563
0.03814778
0.03823800
0.03830461
0.03834621
0.03836175
0.03835052
0.03831221
0.03824686
0.03815490
0.03803715
0.03789476
0.03772925
0.03754242
0.03733631
0.03711323
0.03687560
0.03662602
0.03636709
0.03610148
0.03583178
0.03556052
0.03529009
0.03502274
0.03476049
0.03450517
0.03425837
0.03402145
0.03379550
0.03358139
0.03337976
0.03319103
0.03301541
0.03285296
0.03270355
0.03256695
0.03244281
0.03233069
0.03223009
0.03214047
0.03206129
0.03199198
0.03193199
0.03188081
0.03183794
0.03180295
0.03177545
0.03175508
0.03174156
0.03173463
0.03173407
0.03173973
0.03175151
0.03176943
0.03179375
0.03182504
0.00000000
0.00000000
0.03858176
0.03859209
0.03859667
0.03859596
0.03859030
0.03857996
0.03856517
0.03854616
0.03852314
0.03849632
0.03846590
0.03843209
0.03839507
0.03835500
0.03831201
0.03826624
0.03821776
0.03816667
0.03811299
0.03805676
0.03799797
0.03793663
0.03787268
0.03780610
0.03773683
0.03766482
0.03758999
0.03751229
0.03743166
0.03734804
0.03726140
0.03717171
0.03707896
0.03698316
0.03688434
0.03678259
0.03667800
0.03657072
0.03646093
0.03634887
0.03623482
0.03611913
0.03600219
0.03588449
0.03576654
0.03564895
0.03553239
0.03541759
0.03530536
0.03519656
0.03509213
0.03499302
0.03490027
0.03481493
0.03473806
0.03467075
0.03461405
0.03456901
0.03453662
0.03451781
0.03451342
0.03452418
0.03455069
0.03459343
0.03465268
0.03472854
0.03482093
0.03492953
0.03505382
0.03519301
0.03534612
0.03551189
0.03568883
0.03587526
0.03606923
0.03626863
0.03647117
0.03667440
0.03687577
0.03707263
0.03726230
0.03744208
0.03760935
0.03776154
0.03789623
0.03801120
0.03810442
0.03817415
0.03821894
0.03823768
0.03822962
0.03819439
0.03813200
0.03804287
0.03792777
0.03778787
0.03762467
0.03743997
0.03723587
0.03701466
0.03677884
0.03653101
0.03627385
0.03601005
0.03574226
0.03547305
0.03520486
0.03493994
0.03468038
0.03442800
0.03418441
0.03395094
0.03372871
0.03351854
0.03332104
0.03313661
0.03296540
0.03280741
0.03266249
0.03253033
0.03241052
0.03230258
0.03220595
0.03212006
0.03204429
0.03197804
0.03192075
0.03187185
0.03183087
0.03179734
0.03177090
0.03175125
0.03173816
0.03173148
0.03173116
0.03173724
0.03174992
0.03176952
0.03179664
0.03183217
0.00000000
0.00000000
0.03860319
0.03861260
0.03861633
0.03861480
0.03860840
0.03859741
0.03858211
0.03856274
0.03853955
0.03851276
0.03848256
0.03844916
0.03841272
0.03837340
0.03833133
0.03828662
0.03823934
0.03818955
0.03813728
0.03808254
0.03802533
0.03796561
0.03790332
0.03783842
0.03777083
0.03770047
0.03762725
0.03755108
0.03747188
0.03738956
0.03730405
0.03721530
0.03712325
0.03702788
0.03692919
0.03682721
0.03672202
0.03661371
0.03650243
0.03638840
0.03627185
0.03615312
0.03603257
0.03591067
0.03578794
0.03566497
0.03554244
0.03542110
0.03530177
0.03518536
0.03507283
0.03496519
0.03486352
0.03476894
0.03468256
0.03460555
0.03453904
0.03448415
0.03444193
0.03441340
0.03439947
0.03440095
0.03441851
0.03445267
0.03450380
0.03457206
0.03465740
0.03475956
0.03487805
0.03501214
0.03516084
0.03532294
0.03549697
0.03568122
0.03587378
0.03607251
0.03627512
0.03647913
0.03668195
0.03688091
0.03707328
0.03725631
0.03742732
0.03758367
0.03772289
0.03784266
0.03794090
0.03801577
0.03806577
0.03808969
0.03808673
0.03805645
0.03799880
0.03791415
0.03780325
0.03766723
0.03750758
0.03732611
0.03712492
0.03690634
0.03667290
0.03642723
0.03617209
0.03591020
0.03564428
0.03537697
0.03511075
0.03484794
0.03459065
0.03434077
0.03409991
0.03386945
0.03365047
0.03344381
0.03325008
0.03306961
0.03290255
0.03274885
0.03260829
0.03248052
0.03236508
0.03226141
0.03216892
0.03208695
0.03201486
0.03195199
0.03189774
0.03185152
0.03181282
0.03178118
0.03175626
0.03173777
0.03172555
0.03171956
0.03171985
0.03172664
0.03174031
0.03176143
0.03179082
0.03182954
0.00000000
0.00000000
0.03863085
0.03863877
0.03864117
0.03863846
0.03863101
0.03861914
0.03860313
0.03858325
0.03855973
0.03853281
0.03850268
0.03846954
0.03843355
0.03839484
0.03835355
0.03830975
0.03826351
0.03821487
0.03816385
0.03811043
0.03805459
0.03799627
0.03793541
0.03787191
0.03780569
0.03773663
0.03766461
0.03758952
0.03751122
0.03742961
0.03734457
0.03725599
0.03716379
0.03706791
0.03696830
0.03686494
0.03675787
0.03664714
0.03653288
0.03641525
0.03629447
0.03617085
0.03604475
0.03591661
0.03578696
0.03565640
0.03552564
0.03539545
0.03526669
0.03514031
0.03501733
0.03489884
0.03478596
0.03467990
0.03458186
0.03449308
0.03441478
0.03434816
0.03429437
0.03425450
0.03422955
0.03422040
0.03422780
0.03425235
0.03429446
0.03435437
0.03443208
0.03452737
0.03463980
0.03476867
0.03491302
0.03507166
0.03524313
0.03542575
0.03561758
0.03581650
0.03602019
0.03622615
0.03643177
0.03663432
0.03683103
0.03701910
0.03719576
0.03735832
0.03750421
0.03763103
0.03773661
0.03781901
0.03787662
0.03790816
0.03791272
0.03788978
0.03783920
0.03776129
0.03765673
0.03752662
0.03737241
0.03719590
0.03699919
0.03678461
0.03655473
0.03631224
0.03605991
0.03580057
0.03553698
0.03527186
0.03500776
0.03474707
0.03449197
0.03424439
0.03400601
0.03377823
0.03356217
0.03335868
0.03316836
0.03299154
0.03282834
0.03267867
0.03254228
0.03241877
0.03230761
0.03220820
0.03211988
0.03204195
0.03197368
0.03191440
0.03186343
0.03182016
0.03178406
0.03175465
0.03173158
0.03171461
0.03170361
0.03169859
0.03169971
0.03170732
0.03172193
0.03174426
0.03177527
0.03181613
0.00000000
0.00000000
0.03866452
0.03867042
0.03867105
0.03866681
0.03865803
0.03864504
0.03862812
0.03860755
0.03858355
0.03855635
0.03852616
0.03849315
0.03845747
0.03841924
0.03837857
0.03833552
0.03829016
0.03824248
0.03819250
0.03814018
0.03808546
0.03802827
0.03796851
0.03790607
0.03784081
0.03777259
0.03770125
0.03762664
0.03754859
0.03746693
0.03738151
0.03729217
0.03719878
0.03710121
0.03699939
0.03689325
0.03678277
0.03666797
0.03654893
0.03642579
0.03629876
0.03616810
0.03603419
0.03589747
0.03575848
0.03561784
0.03547629
0.03533466
0.03519386
0.03505491
0.03491888
0.03478696
0.03466036
0.03454037
0.03442829
0.03432545
0.03423317
0.03415274
0.03408542
0.03403237
0.03399470
0.03397335
0.03396917
0.03398281
0.03401477
0.03406534
0.03413457
0.03422231
0.03432816
0.03445144
0.03459124
0.03474639
0.03491546
0.03509677
0.03528840
0.03548821
0.03569388
0.03590289
0.03611259
0.03632023
0.03652296
0.03671793
0.03690229
0.03707329
0.03722824
0.03736464
0.03748021
0.03757291
0.03764100
0.03768308
0.03769811
0.03768546
0.03764489
0.03757660
0.03748119
0.03735968
0.03721347
0.03704432
0.03685430
0.03664576
0.03642128
0.03618357
0.03593547
0.03567985
0.03541956
0.03515739
0.03489598
0.03463780
0.03438512
0.03413994
0.03390401
0.03367879
0.03346545
0.03326488
0.03307767
0.03290419
0.03274454
0.03259861
0.03246612
0.03234664
0.03223958
0.03214430
0.03206007
0.03198614
0.03192173
0.03186610
0.03181853
0.03177838
0.03174506
0.03171810
0.03169712
0.03168190
0.03167232
0.03166845
0.03167052
0.03167893
0.03169431
0.03171746
0.03174943
0.03179142
0.00000000
0.00000000
0.03870389
0.03870731
0.03870577
0.03869965
0.03868927
0.03867493
0.03865692
0.03863549
0.03861087
0.03858327
0.03855289
0.03851987
0.03848436
0.03844646
0.03840625
0.03836379
0.03831910
0.03827217
0.03822299
0.03817148
0.03811758
0.03806116
0.03800211
0.03794026
0.03787545
0.03780750
0.03773619
0.03766133
0.03758268
0.03750005
0.03741321
0.03732195
0.03722609
0.03712545
0.03701989
0.03690929
0.03679358
0.03667277
0.03654687
0.03641601
0.03628037
0.03614023
0.03599595
0.03584800
0.03569693
0.03554342
0.03538826
0.03523232
0.03507660
0.03492220
0.03477028
0.03462213
0.03447905
0.03434244
0.03421372
0.03409430
0.03398562
0.03388908
0.03380603
0.03373774
0.03368538
0.03365002
0.03363256
0.03363374
0.03365414
0.03369410
0.03375374
0.03383297
0.03393142
0.03404849
0.03418329
0.03433469
0.03450129
0.03468142
0.03487318
0.03507445
0.03528289
0.03549596
0.03571100
0.03592520
0.03613568
0.03633953
0.03653380
0.03671565
0.03688230
0.03703113
0.03715972
0.03726590
0.03734778
0.03740381
0.03743281
0.03743400
0.03740699
0.03735185
0.03726906
0.03715954
0.03702459
0.03686590
0.03668551
0.03648574
0.03626915
0.03603849
0.03579664
0.03554651
0.03529105
0.03503310
0.03477541
0.03452056
0.03427089
0.03402852
0.03379528
0.03357271
0.03336205
0.03316425
0.03297995
0.03280953
0.03265312
0.03251062
0.03238171
0.03226594
0.03216271
0.03207130
0.03199096
0.03192086
0.03186020
0.03180816
0.03176398
0.03172696
0.03169649
0.03167207
0.03165329
0.03163993
0.03163188
0.03162922
0.03163222
0.03164134
0.03165724
0.03168080
0.03171307
0.03175526
0.00000000
0.00000000
0.03874861
0.03874911
0.03874504
0.03873673
0.03872449
0.03870860
0.03868932
0.03866688
0.03864151
0.03861339
0.03858269
0.03854954
0.03851406
0.03847633
0.03843641
0.03839433
0.03835009
0.03830366
0.03825498
0.03820396
0.03815048
0.03809441
0.03803557
0.03797376
0.03790877
0.03784037
0.03776828
0.03769226
0.03761202
0.03752728
0.03743777
0.03734322
0.03724337
0.03713798
0.03702687
0.03690985
0.03678683
0.03665774
0.03652259
0.03638148
0.03623460
0.03608220
0.03592469
0.03576254
0.03559637
0.03542691
0.03525500
0.03508162
0.03490785
0.03473487
0.03456398
0.03439654
0.03423400
0.03407785
0.03392963
0.03379088
0.03366315
0.03354794
0.03344671
0.03336082
0.03329157
0.03324009
0.03320738
0.03319427
0.03320139
0.03322918
0.03327783
0.03334729
0.03343728
0.03354723
0.03367633
0.03382347
0.03398729
0.03416617
0.03435823
0.03456136
0.03477323
0.03499130
0.03521288
0.03543514
0.03565515
0.03586992
0.03607644
0.03627176
0.03645298
0.03661737
0.03676234
0.03688557
0.03698500
0.03705891
0.03710593
0.03712509
0.03711583
0.03707803
0.03701204
0.03691859
0.03679889
0.03665452
0.03648742
0.03629987
0.03609440
0.03587375
0.03564083
0.03539860
0.03515006
0.03489816
0.03464574