# vtk DataFile Version 3.0
particle point data
ASCII
DATASET STRUCTURED_GRID
DIMENSIONS 143 143 2
POINTS 40898 double
0.00000000 0.00000000 0.00000000
0.00714286 0.00000000 0.00000000
0.01428571 0.00000000 0.00000000
0.02142857 0.00000000 0.00000000
0.02857143 0.00000000 0.00000000
0.03571429 0.00000000 0.00000000
0.04285714 0.00000000 0.00000000
0.05000000 0.00000000 0.00000000
0.05714286 0.00000000 0.00000000
0.06428571 0.00000000 0.00000000
0.07142857 0.00000000 0.00000000
0.07857143 0.00000000 0.00000000
0.08571429 0.00000000 0.00000000
0.09285714 0.00000000 0.00000000
0.10000000 0.00000000 0.00000000
0.10714286 0.00000000 0.00000000
0.11428571 0.00000000 0.00000000
0.12142857 0.00000000 0.00000000
0.12857143 0.00000000 0.00000000
0.13571429 0.00000000 0.00000000
0.14285714 0.00000000 0.00000000
0.15000000 0.00000000 0.00000000
0.15714286 0.00000000 0.00000000
0.16428571 0.00000000 0.00000000
0.17142857 0.00000000 0.00000000
0.17857143 0.00000000 0.00000000
0.18571429 0.00000000 0.00000000
0.19285714 0.00000000 0.00000000
0.20000000 0.00000000 0.00000000
0.20714286 0.00000000 0.00000000
0.21428571 0.00000000 0.00000000
0.22142857 0.00000000 0.00000000
0.22857143 0.00000000 0.00000000
0.23571429 0.00000000 0.00000000
0.24285714 0.00000000 0.00000000
0.25000000 0.00000000 0.00000000
0.25714286 0.00000000 0.00000000
0.26428571 0.00000000 0.00000000
0.27142857 0.00000000 0.00000000
0.27857143 0.00000000 0.00000000
0.28571429 0.00000000 0.00000000
0.29285714 0.00000000 0.00000000
0.30000000 0.00000000 0.00000000
0.30714286 0.00000000 0.00000000
0.31428571 0.00000000 0.00000000
0.32142857 0.00000000 0.00000000
0.32857143 0.00000000 0.00000000
0.33571429 0.00000000 0.00000000
0.34285714 0.00000000 0.00000000
0.35000000 0.00000000 0.00000000
0.35714286 0.00000000 0.00000000
0.36428571 0.00000000 0.00000000
0.37142857 0.00000000 0.00000000
0.37857143 0.00000000 0.00000000
0.38571429 0.00000000 0.00000000
0.39285714 0.00000000 0.00000000
0.40000000 0.00000000 0.00000000
0.40714286 0.00000000 0.00000000
0.41428571 0.00000000 0.00000000
0.42142857 0.00000000 0.00000000
0.42857143 0.00000000 0.00000000
0.43571429 0.00000000 0.00000000
0.44285714 0.00000000 0.00000000
0.45000000 0.00000000 0.00000000
0.45714286 0.00000000 0.00000000
0.46428571 0.00000000 0.00000000
0.47142857 0.00000000 0.00000000
0.47857143 0.00000000 0.00000000
0.48571429 0.00000000 0.00000000
0.49285714 0.00000000 0.00000000
0.50000000 0.00000000 0.00000000
0.50714286 0.00000000 0.00000000
0.51428571 0.00000000 0.00000000
0.52142857 0.00000000 0.00000000
0.52857143 0.00000000 0.00000000
0.53571429 0.00000000 0.00000000
0.54285714 0.00000000 0.00000000
0.55000000 0.00000000 0.00000000
0.55714286 0.00000000 0.00000000
0.56428571 0.00000000 0.00000000
0.57142857 0.00000000 0.00000000
0.57857143 0.00000000 0.00000000
0.58571429 0.00000000 0.00000000
0.59285714 0.00000000 0.00000000
0.60000000 0.00000000 0.00000000
0.60714286 0.00000000 0.00000000
0.61428571 0.00000000 0.00000000
0.62142857 0.00000000 0.00000000
0.62857143 0.00000000 0.00000000
0.63571429 0.00000000 0.00000000
0.64285714 0.00000000 0.00000000
0.65000000 0.00000000 0.00000000
0.65714286 0.00000000 0.00000000
0.66428571 0.00000000 0.00000000
0.67142857 0.00000000 0.00000000
0.67857143 0.00000000 0.00000000
0.68571429 0.00000000 0.00000000
0.69285714 0.00000000 0.00000000
0.70000000 0.00000000 0.00000000
0.70714286 0.00000000 0.00000000
0.71428571 0.00000000 0.00000000
0.72142857 0.00000000 0.00000000
0.72857143 0.00000000 0.00000000
0.73571429 0.00000000 0.00000000
0.74285714 0.00000000 0.00000000
0.75000000 0.00000000 0.00000000
0.75714286 0.00000000 0.00000000
0.76428571 0.00000000 0.00000000
0.77142857 0.00000000 0.00000000
0.77857143 0.00000000 0.00000000
0.78571429 0.00000000 0.00000000
0.79285714 0.00000000 0.00000000
0.80000000 0.00000000 0.00000000
0.80714286 0.00000000 0.00000000
0.81428571 0.00000000 0.00000000
0.82142857 0.00000000 0.00000000
0.82857143 0.00000000 0.00000000
0.83571429 0.00000000 0.00000000
0.84285714 0.00000000 0.00000000
0.85000000 0.00000000 0.00000000
0.85714286 0.00000000 0.00000000
0.86428571 0.00000000 0.00000000
0.87142857 0.00000000 0.00000000
0.87857143 0.00000000 0.00000000
0.88571429 0.00000000 0.00000000
0.89285714 0.00000000 0.00000000
0.90000000 0.00000000 0.00000000
0.90714286 0.00000000 0.00000000
0.91428571 0.00000000 0.00000000
0.92142857 0.00000000 0.00000000
0.92857143 0.00000000 0.00000000
0.93571429 0.00000000 0.00000000
0.94285714 0.00000000 0.00000000
0.95000000 0.00000000 0.00000000
0.95714286 0.00000000 0.00000000
0.96428571 0.00000000 0.00000000
0.97142857 0.00000000 0.00000000
0.97857143 0.00000000 0.00000000
0.98571429 0.00000000 0.00000000
0.99285714 0.00000000 0.00000000
1.00000000 0.00000000 0.00000000
1.00714286 0.00000000 0.00000000
1.01428571 0.00000000 0.00000000
0.00000000 0.00714286 0.00000000
0.00714286 0.00714286 0.00000000
0.01428571 0.00714286 0.00000000
0.02142857 0.00714286 0.00000000
0.02857143 0.00714286 0.00000000
0.03571429 0.00714286 0.00000000
0.04285714 0.00714286 0.00000000
0.05000000 0.00714286 0.00000000
0.05714286 0.00714286 0.00000000
0.06428571 0.00714286 0.00000000
0.07142857 0.00714286 0.00000000
0.07857143 0.00714286 0.00000000
0.08571429 0.00714286 0.00000000
0.09285714 0.00714286 0.00000000
0.10000000 0.00714286 0.00000000
0.10714286 0.00714286 0.00000000
0.11428571 0.00714286 0.00000000
0.12142857 0.00714286 0.00000000
0.12857143 0.00714286 0.00000000
0.13571429 0.00714286 0.00000000
0.14285714 0.00714286 0.00000000
0.15000000 0.00714286 0.00000000
0.15714286 0.00714286 0.00000000
0.16428571 0.00714286 0.00000000
0.17142857 0.00714286 0.00000000
0.17857143 0.00714286 0.00000000
0.18571429 0.00714286 0.00000000
0.19285714 0.00714286 0.00000000
0.20000000 0.00714286 0.00000000
0.20714286 0.00714286 0.00000000
0.21428571 0.00714286 0.00000000
0.22142857 0.00714286 0.00000000
0.22857143 0.00714286 0.00000000
0.23571429 0.00714286 0.00000000
0.24285714 0.00714286 0.00000000
0.25000000 0.00714286 0.00000000
0.25714286 0.00714286 0.00000000
0.26428571 0.00714286 0.00000000
0.27142857 0.00714286 0.00000000
0.27857143 0.00714286 0.00000000
0.28571429 0.00714286 0.00000000
0.29285714 0.00714286 0.00000000
0.30000000 0.00714286 0.00000000
0.30714286 0.00714286 0.00000000
0.31428571 0.00714286 0.00000000
0.32142857 0.00714286 0.00000000
0.32857143 0.00714286 0.00000000
0.33571429 0.00714286 0.00000000
0.34285714 0.00714286 0.00000000
0.35000000 0.00714286 0.00000000
0.35714286 0.00714286 0.00000000
0.36428571 0.00714286 0.00000000
0.37142857 0.00714286 0.00000000
0.37857143 0.00714286 0.00000000
0.38571429 0.00714286 0.00000000
0.39285714 0.00714286 0.00000000
0.40000000 0.00714286 0.00000000
0.40714286 0.00714286 0.00000000
0.41428571 0.00714286 0.00000000
0.42142857 0.00714286 0.00000000
0.42857143 0.00714286 0.00000000
0.43571429 0.00714286 0.00000000
0.44285714 0.00714286 0.00000000
0.45000000 0.00714286 0.00000000
0.45714286 0.00714286 0.00000000
0.46428571 0.00714286 0.00000000
0.47142857 0.00714286 0.00000000
0.47857143 0.00714286 0.00000000
0.48571429 0.00714286 0.00000000
0.49285714 0.00714286 0.00000000
0.50000000 0.00714286 0.00000000
0.50714286 0.00714286 0.00000000
0.51428571 0.00714286 0.00000000
0.52142857 0.00714286 0.00000000
0.52857143 0.00714286 0.00000000
0.53571429 0.00714286 0.00000000
0.54285714 0.00714286 0.00000000
0.55000000 0.00714286 0.00000000
0.55714286 0.00714286 0.00000000
0.56428571 0.00714286 0.00000000
0.57142857 0.00714286 0.00000000
0.57857143 0.00714286 0.00000000
0.58571429 0.00714286 0.00000000
0.59285714 0.00714286 0.00000000
0.60000000 0.00714286 0.00000000
0.60714286 0.00714286 0.00000000
0.61428571 0.00714286 0.00000000
0.62142857 0.00714286 0.00000000
0.62857143 0.00714286 0.00000000
0.63571429 0.00714286 0.00000000
0.64285714 0.00714286 0.00000000
0.65000000 0.00714286 0.00000000
0.65714286 0.00714286 0.00000000
0.66428571 0.00714286 0.00000000
0.67142857 0.00714286 0.00000000
0.67857143 0.00714286 0.00000000
0.68571429 0.00714286 0.00000000
0.69285714 0.00714286 0.00000000
0.70000000 0.00714286 0.00000000
0.70714286 0.00714286 0.00000000
0.71428571 0.00714286 0.00000000
0.72142857 0.00714286 0.00000000
0.72857143 0.00714286 0.00000000
0.73571429 0.00714286 0.00000000
0.74285714 0.00714286 0.00000000
0.75000000 0.00714286 0.00000000
0.75714286 0.00714286 0.00000000
0.76428571 0.00714286 0.00000000
0.77142857 0.00714286 0.00000000
0.77857143 0.00714286 0.00000000
0.78571429 0.00714286 0.00000000
0.79285714 0.00714286 0.00000000
0.80000000 0.00714286 0.00000000
0.80714286 0.00714286 0.00000000
0.81428571 0.00714286 0.00000000
0.82142857 0.00714286 0.00000000
0.82857143 0.00714286 0.00000000
0.83571429 0.00714286 0.00000000
0.84285714 0.00714286 0.00000000
0.85000000 0.00714286 0.00000000
0.85714286 0.00714286 0.00000000
0.86428571 0.00714286 0.00000000
0.87142857 0.00714286 0.00000000
0.87857143 0.00714286 0.00000000
0.88571429 0.00714286 0.00000000
0.89285714 0.00714286 0.00000000
0.90000000 0.00714286 0.00000000
0.90714286 0.00714286 0.00000000
0.91428571 0.00714286 0.00000000
0.92142857 0.00714286 0.00000000
0.92857143 0.00714286 0.00000000
0.93571429 0.00714286 0.00000000
0.94285714 0.00714286 0.00000000
0.95000000 0.00714286 0.00000000
0.95714286 0.00714286 0.00000000
0.96428571 0.00714286 0.00000000
0.97142857 0.00714286 0.00000000
0.97857143 0.00714286 0.00000000
0.98571429 0.00714286 0.00000000
0.99285714 0.00714286 0.00000000
1.00000000 0.00714286 0.00000000
1.00714286 0.00714286 0.00000000
1.01428571 0.00714286 0.00000000
0.00000000 0.01428571 0.00000000
0.00714286 0.01428571 0.00000000
0.01428571 0.01428571 0.00000000
0.02142857 0.01428571 0.00000000
0.02857143 0.01428571 0.00000000
0.03571429 0.01428571 0.00000000
0.04285714 0.01428571 0.00000000
0.05000000 0.01428571 0.00000000
0.05714286 0.01428571 0.00000000
0.06428571 0.01428571 0.00000000
0.07142857 0.01428571 0.00000000
0.07857143 0.01428571 0.00000000
0.08571429 0.01428571 0.00000000
[...]
CELL_DATA 20164
SCALARS pressure double 
 LOOKUP_TABLE default
0.00000000
0.00000000
0.00000000
0.00000000
0.00000000
0.00000000
0.00000000
0.00000000
0.00000000
0.00000000
0.00000000
0.00000000
0.00000000
0.00000000
0.00000000
0.00000000
0.00000000
0.00000000
0.00000000
0.00000000
0.00000000
0.00000000
0.00000000
0.00000000
0.00000000
0.00000000
0.00000000
0.00000000
0.00000000
0.00000000
0.00000000
0.00000000
0.00000000
0.00000000
0.00000000
0.00000000
0.00000000
0.00000000
0.00000000
0.00000000
0.00000000
0.00000000
0.00000000
0.00000000
0.00000000
0.00000000
0.00000000
0.00000000
0.00000000
0.00000000
0.00000000
0.00000000
0.00000000
0.00000000
0.00000000
0.00000000
0.00000000
0.00000000
0.00000000
0.00000000
0.00000000
0.00000000
0.00000000
0.00000000
0.00000000
0.00000000
0.00000000
0.00000000
0.00000000
0.00000000
0.00000000
0.00000000
0.00000000
0.00000000
0.00000000
0.00000000
0.00000000
0.00000000
0.00000000
0.00000000
0.00000000
0.00000000
0.00000000
0.00000000
0.00000000
0.00000000
0.00000000
0.00000000
0.00000000
0.00000000
0.00000000
0.00000000
0.00000000
0.00000000
0.00000000
0.00000000
0.00000000
0.00000000
0.00000000
0.00000000
0.00000000
0.00000000
0.00000000
0.00000000
0.00000000
0.00000000
0.00000000
0.00000000
0.00000000
0.00000000
0.00000000
0.00000000
0.00000000
0.00000000
0.00000000
0.00000000
0.00000000
0.00000000
0.00000000
0.00000000
0.00000000
0.00000000
0.00000000
0.00000000
0.00000000
0.00000000
0.00000000
0.00000000
0.00000000
0.00000000
0.00000000
0.00000000
0.00000000
0.00000000
0.00000000
0.00000000
0.00000000
0.00000000
0.00000000
0.00000000
0.00000000
0.00000000
0.00000000
0.04386483
0.04387454
0.04388696
0.04389616
0.04389859
0.04389238
0.04387670
0.04385140
0.04381671
0.04377311
0.04372125
0.04366180
0.04359545
0.04352286
0.04344462
0.04336121
0.04327306
0.04318045
0.04308359
0.04298257
0.04287741
0.04276803
0.04265431
0.04253608
0.04241312
0.04228522
0.04215216
0.04201372
0.04186973
0.04172005
0.04156457
0.04140326
0.04123613
0.04106328
0.04088487
0.04070114
0.04051240
0.04031907
0.04012165
0.03992073
0.03971700
0.03951125
0.03930437
0.03909735
0.03889130
0.03868742
0.03848700
0.03829144
0.03810221
0.03792086
0.03774902
0.03758835
0.03744057
0.03730739
0.03719054
0.03709172
0.03701257
0.03695467
0.03691948
0.03690835
0.03692246
0.03696280
0.03703016
0.03712507
0.03724781
0.03739835
0.03757636
0.03778118
0.03801180
0.03826686
0.03854464
0.03884305
0.03915968
0.03949175
0.03983617
0.04018957
0.04054831
0.04090853
0.04126619
0.04161716
0.04195721
0.04228213
0.04258777
0.04287011
0.04312536
0.04334996
0.04354071
0.04369483
0.04380996
0.04388427
0.04391648
0.04390585
0.04385229
0.04375625
0.04361882
0.04344162
0.04322683
0.04297711
0.04269554
0.04238559
0.04205101
0.04169575
0.04132392
0.04093965
0.04054707
0.04015020
0.03975287
0.03935870
0.03897101
0.03859281
0.03822675
0.03787509
0.03753973
0.03722218
0.03692357
0.03664469
0.03638599
0.03614763
0.03592950
0.03573128
0.03555243
0.03539230
0.03525010
0.03512500
0.03501613
0.03492260
0.03484360
0.03477833
0.03472610
0.03468629
0.03465836
0.03464179
0.03463607
0.03464054
0.03465428
0.03467581
0.03470278
0.03473146
0.03475618
0.03476931
0.00000000
0.00000000
0.04385513
0.04386484
0.04387409
0.04387967
0.04387916
0.04387108
0.04385462
0.04382952
0.04379586
0.04375399
0.04370437
0.04364757
0.04358414
0.04351466
0.04343964
0.04335950
0.04327462
0.04318526
0.04309160
0.04299374
0.04289170
0.04278543
0.04267481
0.04255970
0.04243991
0.04231525
0.04218552
0.04205053
0.04191013
0.04176417
0.04161257
0.04145529
0.04129235
0.04112383
0.04094987
0.04077070
0.04058662
0.04039801
0.04020534
0.04000916
0.03981013
0.03960899
0.03940661
0.03920392
0.03900198
0.03880194
0.03860504
0.03841262
0.03822612
0.03804702
0.03787690
0.03771739
0.03757013
0.03743682
0.03731913
0.03721873
0.03713723
0.03707617
0.03703702
0.03702109
0.03702956
0.03706343
0.03712349
0.03721030
0.03732413
0.03746502
0.03763266
0.03782644
0.03804540
0.03828825
0.03855334
0.03883866
0.03914186
0.03946028
0.03979092
0.04013050
0.04047549
0.04082213
0.04116652
0.04150460
0.04183228
0.04214546
0.04244009
0.04271227
0.04295829
0.04317470
0.04335839
0.04350663
0.04361714
0.04368815
0.04371840
0.04370720
0.04365445
0.04356060
0.04342670
0.04325435
0.04304566
0.04280322
0.04253002
0.04222943
0.04190508
0.04156080
0.04120056
0.04082836
0.04044817
0.04006387
0.03967915
0.03929750
0.03892209
0.03855582
0.03820122
0.03786046
0.03753535
0.03722734
0.03693750
0.03666659
0.03641503
0.03618298
0.03597035
0.03577682
0.03560189
0.03544495
0.03530526
0.03518201
0.03507439
0.03498155
0.03490269
0.03483704
0.03478389
0.03474260
0.03471256
0.03469319
0.03468386
0.03468385
0.03469215
0.03470734
0.03472737
0.03474931
0.03476924
0.03478243
0.00000000
0.00000000
0.04384267
0.04385559
0.04386487
0.04386918
0.04386722
0.04385803
0.04384103
0.04381603
0.04378308
0.04374245
0.04369454
0.04363982
0.04357878
0.04351192
0.04343968
0.04336246
0.04328058
0.04319429
0.04310374
0.04300902
0.04291014
0.04280706
0.04269968
0.04258784
0.04247139
0.04235013
0.04222389
0.04209247
0.04195573
0.04181354
0.04166580
0.04151247
0.04135356
0.04118913
0.04101932
0.04084431
0.04066439
0.04047989
0.04029126
0.04009902
0.03990378
0.03970625
0.03950722
0.03930761
0.03910842
0.03891075
0.03871581
0.03852489
0.03833937
0.03816073
0.03799048
0.03783023
0.03768160
0.03754626
0.03742587
0.03732207
0.03723649
0.03717067
0.03712607
0.03710403
0.03710575
0.03713225
0.03718435
0.03726265
0.03736749
0.03749891
0.03765669
0.03784027
0.03804875
0.03828089
0.03853511
0.03880948
0.03910173
0.03940924
0.03972909
0.04005807
0.04039273
0.04072938
0.04106415
0.04139309
0.04171214
0.04201727
0.04230447
0.04256990
0.04280989
0.04302103
0.04320024
0.04334482
0.04345253
0.04352159
0.04355077
0.04353939
0.04348733
0.04339506
0.04326361
0.04309456
0.04288999
0.04265247
0.04238496
0.04209076
0.04177347
0.04143684
0.04108479
0.04072123
0.04035008
0.03997511
0.03959993
0.03922793
0.03886222
0.03850557
0.03816043
0.03782891
0.03751271
0.03721322
0.03693145
0.03666809
0.03642354
0.03619791
0.03599108
0.03580272
0.03563235
0.03547933
0.03534294
0.03522239
0.03511687
0.03502555
0.03494763
0.03488234
0.03482897
0.03478685
0.03475536
0.03473389
0.03472181
0.03471841
0.03472280
0.03473382
0.03474993
0.03476913
0.03478905
0.03480718
0.00000000
0.00000000
0.04383333
0.04384995
0.04386053
0.04386481
0.04386229
0.04385251
0.04383517
0.04381019
0.04377769
0.04373792
0.04369127
0.04363817
0.04357906
0.04351439
0.04344457
0.04336996
0.04329085
0.04320745
0.04311991
0.04302828
0.04293259
0.04283276
0.04272869
0.04262023
0.04250722
0.04238947
0.04226679
0.04213899
0.04200593
0.04186745
0.04172346
0.04157390
0.04141876
0.04125807
0.04109196
0.04092057
0.04074416
0.04056303
0.04037758
0.04018828
0.03999571
0.03980053
0.03960350
0.03940548
0.03920743
0.03901042
0.03881560
0.03862426
0.03843773
0.03825747
0.03808497
0.03792184
0.03776969
0.03763018
0.03750499
0.03739579
0.03730421
0.03723183
0.03718013
0.03715052
0.03714421
0.03716230
0.03720566
0.03727492
0.03737051
0.03749252
0.03764079
0.03781482
0.03801377
0.03823647
0.03848141
0.03874669
0.03903009
0.03932907
0.03964074
0.03996194
0.04028925
0.04061901
0.04094740
0.04127046
0.04158417
0.04188451
0.04216748
0.04242924
0.04266612
0.04287470
0.04305190
0.04319501
0.04330178
0.04337041
0.04339967
0.04338887
0.04333787
0.04324713
0.04311768
0.04295110
0.04274947
0.04251534
0.04225167
0.04196177
0.04164921
0.04131776
0.04097131
0.04061377
0.04024900
0.03988077
0.03951265
0.03914797
0.03878978
0.03844082
0.03810346
0.03777973
0.03747129
0.03717942
0.03690510
0.03664893
0.03641125
0.03619213
0.03599139
0.03580866
0.03564341
0.03549500
0.03536267
0.03524563
0.03514303
0.03505406
0.03497789
0.03491375
0.03486093
0.03481873
0.03478655
0.03476380
0.03474989
0.03474423
0.03474611
0.03475474
0.03476911
0.03478812
0.03481059
0.03483564
0.00000000
0.00000000
0.04383062
0.04385030
0.04386232
0.04386700
0.04386431
0.04385416
0.04383652
0.04381145
0.04377915
0.04373993
0.04369417
0.04364228
0.04358471
0.04352187
0.04345415
0.04338188
0.04330531
0.04322464
0.04313999
0.04305140
0.04295886
0.04286228
0.04276156
0.04265652
0.04254698
0.04243274
0.04231361
0.04218938
0.04205987
0.04192493
0.04178445
0.04163833
0.04148653
0.04132908
0.04116603
0.04099752
0.04082375
0.04064499
0.04046158
0.04027396
0.04008265
0.03988827
0.03969154
0.03949328
0.03929442
0.03909598
0.03889912
0.03870506
0.03851517
0.03833086
0.03815367
0.03798518
0.03782705
0.03768096
0.03754862
0.03743175
0.03733202
0.03725107
0.03719046
0.03715163
0.03713588
0.03714438
0.03717805
0.03723762
0.03732355
0.03743604
0.03757497
0.03773991
0.03793007
0.03814436
0.03838128
0.03863900
0.03891535
0.03920780
0.03951350
0.03982930
0.04015180
0.04047735
0.04080212
0.04112216
0.04143344
0.04173189
0.04201351
0.04227442
0.04251092
0.04271956
0.04289721
0.04304112
0.04314900
0.04321902
0.04324990
0.04324092
0.04319192
0.04310336
0.04297623
0.04281211
0.04261309
0.04238174
0.04212102
0.04183428
0.04152510
0.04119728
0.04085474
0.04050141
0.04014117
0.03977781
0.03941489
0.03905574
0.03870341
0.03836059
0.03802963
0.03771251
0.03741083
0.03712583
0.03685839
0.03660908
0.03637814
0.03616558
0.03597115
0.03579442
0.03563482
0.03549162
0.03536405
0.03525126
0.03515238
0.03506656
0.03499295
0.03493077
0.03487927
0.03483780
0.03480574
0.03478256
0.03476776
0.03476087
0.03476145
0.03476902
0.03478313
0.03480334
0.03482943
0.03486155
0.00000000
0.00000000
0.04383649
0.04385819
0.04387126
0.04387623
0.04387337
0.04386284
0.04384480
0.04381947
0.04378713
0.04374815
0.04370293
0.04365192
0.04359554
0.04353421
0.04346830
0.04339810
0.04332387
0.04324576
0.04316388
0.04307822
0.04298876
0.04289539
0.04279795
0.04269627
0.04259013
0.04247931
0.04236358
0.04224272
0.04211652
0.04198479
0.04184738
0.04170418
0.04155510
0.04140012
0.04123927
0.04107262
0.04090032
0.04072261
0.04053977
0.04035220
0.04016037
0.03996485
0.03976633
0.03956559
0.03936354
0.03916119
0.03895966
0.03876021
0.03856419
0.03837305
0.03818833
0.03801169
0.03784480
0.03768941
0.03754731
0.03742027
0.03731004
0.03721835
0.03714682
0.03709699
0.03707026
0.03706784
0.03709076
0.03713983
0.03721557
0.03731826
0.03744784
0.03760393
0.03778582
0.03799244
0.03822234
0.03847374
0.03874446
0.03903202
0.03933358
0.03964598
0.03996583
0.04028947
0.04061305
0.04093259
0.04124401
0.04154323
0.04182620
0.04208896
0.04232777
0.04253910
0.04271976
0.04286695
0.04297828
0.04305189
0.04308641
0.04308108
0.04303570
0.04295068
0.04282699
0.04266621
0.04247041
0.04224216
0.04198448
0.04170072
0.04139453
0.04106973
0.04073031
0.04038024
0.04002347
0.03966382
0.03930490
0.03895007
0.03860239
0.03826458
0.03793896
0.03762750
0.03733177
0.03705297
0.03679191
0.03654910
0.03632473
0.03611871
0.03593073
0.03576028
0.03560671
0.03546924
0.03534702
0.03523914
0.03514468
0.03506275
0.03499246
0.03493300
0.03488363
0.03484367
0.03481255
0.03478978
0.03477495
0.03476776
0.03476797
0.03477544
0.03479014
0.03481220
0.03484202
0.03488044
0.00000000
0.00000000
0.04385194
0.04387456
0.04388802
0.04389290
0.04388963
0.04387852
0.04385988
0.04383405
0.04380140
0.04376236
0.04371739
0.04366693
0.04361144
0.04355133
0.04348696
0.04341860
0.04334649
0.04327076
0.04319146
0.04310860
0.04302208
0.04293177
0.04283749
0.04273900
0.04263607
0.04252842
0.04241580
0.04229794
0.04217460
0.04204554
0.04191056
0.04176951
0.04162225
0.04146870
0.04130884
0.04114270
0.04097036
0.04079201
0.04060788
0.04041831
0.04022374
0.04002469
0.03982184
0.03961593
0.03940786
0.03919864
0.03898942
0.03878146
0.03857615
0.03837500
0.03817960
0.03799167
0.03781297
0.03764533
0.03749062
0.03735072
0.03722747
0.03712270
0.03703813
0.03697540
0.03693600
0.03692123
0.03693222
0.03696984
0.03703471
0.03712714
0.03724716
0.03739445
0.03756832
0.03776775
0.03799134
0.03823732
0.03850354
0.03878752
0.03908642
0.03939710
0.03971614
0.04003986
0.04036439
0.04068570
0.04099969
0.04130219
0.04158910
0.04185640
0.04210025
0.04231706
0.04250353
0.04265677
0.04277431
0.04285417
0.04289493
0.04289572
0.04285628
0.04277695
0.04265867
0.04250296
0.04231190
0.04208806
0.04183445
0.04155447
0.04125180
0.04093034
0.04059412
0.04024721
0.03989361
0.03953723
0.03918173
0.03883056
0.03848682
0.03815325
0.03783223
0.03752573
0.03723529
0.03696211
0.03670696
0.03647030
0.03625225
0.03605267
0.03587115
0.03570712
0.03555984
0.03542845
0.03531201
0.03520956
0.03512011
0.03504269
0.03497640
0.03492037
0.03487383
0.03483612
0.03480669
0.03478508
0.03477099
0.03476425
0.03476481
0.03477281
0.03478854
0.03481255
0.03484568
0.03488918
0.00000000
0.00000000
0.04387744
0.04389996
0.04391305
0.04391731
0.04391324
0.04390123
0.04388171
0.04385510
0.04382186
0.04378248
0.04373746
0.04368728
0.04363240
0.04357324
0.04351014
0.04344338
0.04337316
0.04329958
0.04322267
0.04314238
0.04305859
0.04297111
0.04287971
0.04278412
0.04268405
0.04257917
0.04246918
0.04235375
0.04223258
0.04210540
0.04197194
0.04183197
0.04168531
0.04153182
0.04137140
0.04120402
0.04102971
0.04084859
0.04066085
0.04046678
0.04026677
0.04006134
0.03985112
0.03963688
0.03941950
0.03920003
0.03897965
0.03875968
0.03854157
0.03832689
0.03811735
0.03791473
0.03772093
0.03753787
0.03736754
0.03721192
0.03707300
0.03695270
0.03685286
0.03677521
0.03672135
0.03669269
0.03669042
0.03671550
0.03676862
0.03685016
0.03696020
0.03709846
0.03726432
0.03745678
0.03767446
0.03791562
0.03817814
0.03845954
0.03875698
0.03906732
0.03938711
0.03971267
0.04004010
0.04036531
0.04068416
0.04099242
0.04128590
0.04156051
0.04181231
0.04203760
0.04223298
0.04239544
0.04252239
0.04261173
0.04266192
0.04267198
0.04264155
0.04257087
0.04246081
0.04231282
0.04212894
0.04191171
0.04166416
0.04138968
0.04109201
0.04077510
0.04044304
0.04009998
0.03975002
0.03939715
0.03904515
0.03869752
0.03835747
0.03802781
0.03771095
0.03740892
0.03712330
0.03685526
0.03660559
0.03637470
0.03616267
0.03596930
0.03579413
0.03563650
0.03549558
0.03537043
0.03526004
0.03516336
0.03507933
0.03500691
0.03494514
0.03489310
0.03485001
0.03481518
0.03478807
0.03476827
0.03475555
0.03474984
0.03475126
0.03476013
0.03477703
0.03480277
0.03483850
0.03488572
0.00000000
0.00000000
0.04391314
0.04393461
0.04394659
0.04394965
0.04394430
0.04393101
0.04391028
0.04388260
0.04384849
0.04380850
0.04376316
0.04371298
0.04365845
0.04359997
0.04353789
0.04347247
0.04340388
0.04333219
0.04325739
0.04317939
0.04309800
0.04301300
0.04292409
0.04283094
0.04273320
0.04263048
0.04252241
0.04240860
0.04228867
0.04216228
0.04202910
0.04188882
0.04174118
0.04158596
0.04142301
0.04125222
0.04107356
0.04088708
0.04069293
0.04049137
0.04028275
0.04006759
0.03984651
0.03962030
0.03938989
0.03915637
0.03892099
0.03868514
0.03845038
0.03821840
0.03799099
0.03777009
0.03755771
0.03735591
0.03716681
0.03699253
0.03683517
0.03669678
0.03657933
0.03648465
0.03641443
0.03637017
0.03635317
0.03636444
0.03640474
0.03647452
0.03657391
0.03670268
0.03686024
0.03704563
0.03725751
0.03749416
0.03775348
0.03803299
0.03832988
0.03864100
0.03896291
0.03929188
0.03962399
0.03995514
0.04028109
0.04059758
0.04090034
0.04118517
0.04144803
0.04168511
0.04189287
0.04206816
0.04220823
0.04231086
0.04237433
0.04239752
0.04237993
0.04232167
0.04222348
0.04208674
0.04191339
0.04170593
0.04146734
0.04120103
0.04091074
0.04060046
0.04027437
0.03993667
0.03959158
0.03924317
0.03889534
0.03855172
0.03821560
0.03788989
0.03757712
0.03727936
0.03699824
0.03673500
0.03649042
0.03626491
0.03605854
0.03587107
0.03570199
0.03555056
0.03541589
0.03529697
0.03519269
0.03510192
0.03502352
0.03495639
0.03489948
0.03485184
0.03481264
0.03478116
0.03475686
0.03473936
0.03472847
0.03472420
0.03472679
0.03473671
0.03475469
0.03478177
0.03481927
0.03486881
0.00000000
0.00000000
0.04395902
0.04397859
0.04398873
0.04398999
0.04398288
0.04396791
0.04394563
0.04391657
0.04388132
0.04384045
0.04379454
0.04374411
0.04368967
0.04363162
0.04357029
0.04350593
0.04343867
0.04336855
0.04329551
0.04321940
0.04313998
0.04305696
0.04296998
0.04287863
0.04278249
0.04268110
0.04257398
0.04246069
0.04234076
0.04221375
0.04207925
0.04193687
0.04178626
0.04162712
0.04145921
0.04128237
0.04109649
0.04090157
0.04069773
0.04048518
0.04026430
0.04003559
0.03979971
0.03955749
0.03930992
0.03905819
0.03880364
0.03854778
0.03829229
0.03803899
0.03778983
0.03754689
0.03731232
0.03708835
0.03687724
0.03668124
0.03650259
0.03634347
0.03620595
0.03609198
0.03600335
0.03594165
0.03590823
0.03590421
0.03593039
0.03598729
0.03607508
0.03619359
0.03634227
0.03652020
0.03672607
0.03695820
0.03721451
0.03749257
0.03778956
0.03810235
0.03842750
0.03876128
0.03909976
0.03943878
0.03977408
0.04010132
0.04041616
0.04071429
0.04099156
0.04124403
0.04146800
0.04166016
0.04181760
0.04193788
0.04201912
0.04206001
0.04205986
0.04201859
0.04193681
0.04181572
0.04165717
0.04146354
0.04123777
0.04098320
0.04070358
0.04040293
0.04008545
0.03975545
0.03941720
0.03907492
0.03873261
0.03839403
0.03806260
0.03774136
0.03743294
0.03713953
0.03686285
0.03660420
0.03636441
0.03614394
0.03594285
0.03576088
0.03559751
0.03545195
0.03532325
0.03521033
0.03511201
0.03502707
0.03495430
0.03489253
0.03484062
0.03479758
0.03476252
0.03473468
0.03471352
0.03469863
0.03468987
0.03468729
0.03469119
0.03470215
0.03472102
0.03474893
0.03478733
0.03483787
0.00000000
0.00000000
0.04401497
0.04403185
0.04403946
0.04403834
0.04402899
0.04401195
0.04398777
0.04395705
0.04392039
0.04387840
0.04383167
0.04378076
0.04372615
0.04366826
0.04360740
0.04354378
0.04347750
0.04340855
0.04333682
0.04326209
0.04318407
0.04310238
0.04301659
0.04292619
0.04283068
0.04272950
0.04262210
0.04250792
0.04238639
0.04225698
0.04211918
0.04197249
0.04181649
0.04165077
0.04147502
0.04128899
0.04109253
0.04088561
0.04066830
0.04044083
0.04020357
0.03995706
0.03970203
0.03943939
0.03917022
0.03889583
0.03861768
0.03833745
0.03805695
0.03777818
0.03750326
0.03723441
0.03697397
0.03672432
0.03648786
0.03626701
0.03606412
0.03588150
0.03572134
0.03558569
0.03547643
0.03539522
0.03534351
0.03532246
0.03533296
0.03537558
0.03545053
0.03555770
0.03569660
0.03586635
0.03606569
0.03629299
0.03654620
0.03682293
0.03712041
0.03743553
0.03776486
0.03810470
0.03845108
0.03879984
0.03914669
0.03948723
0.03981702
0.04013167
0.04042691
0.04069863
0.04094300
0.04115649
0.04133600
0.04147887
0.04158299
0.04164682
0.04166943
0.04165054
0.04159050
0.04149036
0.04135176
0.04117697
0.04096877
0.04073047
0.04046574
0.04017860
0.03987327
0.03955412
0.03922551
0.03889176
0.03855700
0.03822511
0.03789968
0.03758390
0.03728053
0.03699190
0.03671986
0.03646580
0.03623066
0.03601493
0.03581875
0.03564186
0.03548374
0.03534359
0.03522042
0.03511310
0.03502039
0.03494100
0.03487365
0.03481708
0.03477011
0.03473166
0.03470077
0.03467667
0.03465875
0.03464662
0.03464011
0.03463929
0.03464452
0.03465640
0.03467585
0.03470407
0.03474251
0.03479284
0.00000000
0.00000000
0.04408076
0.04409422
0.04409866
0.04409462
0.04408258
0.04406308
0.04403670
0.04400404
0.04396573
0.04392239
0.04387463
0.04382299
0.04376796
0.04370995
0.04364923
0.04358598
0.04352025
0.04345199
0.04338102
0.04330704
0.04322969
0.04314849
0.04306292
0.04297239
0.04287628
0.04277394
0.04266468
0.04254785
0.04242277
0.04228879
0.04214527
0.04199164
0.04182735
0.04165191
0.04146494
0.04126612
0.04105526
0.04083229
0.04059729
0.04035050
0.04009235
0.03982344
0.03954458
0.03925680
0.03896133
0.03865960
0.03835326
0.03804414
0.03773425
0.03742576
0.03712097
0.03682229
0.03653223
0.03625332
0.03598812
0.03573919
0.03550902
0.03530002
0.03511451
0.03495461
0.03482230
0.03471932
0.03464719
0.03460715
0.03460013
0.03462676
0.03468735
0.03478181
0.03490972
0.03507026
0.03526225
0.03548409
0.03573382
0.03600909
0.03630719
0.03662505
0.03695929
0.03730622
0.03766189
0.03802216
0.03838268
0.03873901
0.03908666
0.03942113
0.03973802
0.04003308
0.04030228
0.04054189
0.04074858
0.04091945
0.04105211
0.04114474
0.04119612
0.04120570
0.04117356
0.04110048
0.04098788
0.04083781
0.04065290
0.04043630
0.04019161
0.03992279
0.03963405
0.03932978
0.03901442
0.03869238
0.03836791