# vtk DataFile Version 3.0
particle point data
ASCII
DATASET STRUCTURED_GRID
DIMENSIONS 143 143 2
POINTS 40898 double
0.00000000 0.00000000 0.00000000
0.00714286 0.00000000 0.00000000
0.01428571 0.00000000 0.00000000
0.02142857 0.00000000 0.00000000
0.02857143 0.00000000 0.00000000
0.03571429 0.00000000 0.00000000
0.04285714 0.00000000 0.00000000
0.05000000 0.00000000 0.00000000
0.05714286 0.00000000 0.00000000
0.06428571 0.00000000 0.00000000
0.07142857 0.00000000 0.00000000
0.07857143 0.00000000 0.00000000
0.08571429 0.00000000 0.00000000
0.09285714 0.00000000 0.00000000
0.10000000 0.00000000 0.00000000
0.10714286 0.00000000 0.00000000
0.11428571 0.00000000 0.00000000
0.12142857 0.00000000 0.00000000
0.12857143 0.00000000 0.00000000
0.13571429 0.00000000 0.00000000
0.14285714 0.00000000 0.00000000
0.15000000 0.00000000 0.00000000
0.15714286 0.00000000 0.00000000
0.16428571 0.00000000 0.00000000
0.17142857 0.00000000 0.00000000
0.17857143 0.00000000 0.00000000
0.18571429 0.00000000 0.00000000
0.19285714 0.00000000 0.00000000
0.20000000 0.00000000 0.00000000
0.20714286 0.00000000 0.00000000
0.21428571 0.00000000 0.00000000
0.22142857 0.00000000 0.00000000
0.22857143 0.00000000 0.00000000
0.23571429 0.00000000 0.00000000
0.24285714 0.00000000 0.00000000
0.25000000 0.00000000 0.00000000
0.25714286 0.00000000 0.00000000
0.26428571 0.00000000 0.00000000
0.27142857 0.00000000 0.00000000
0.27857143 0.00000000 0.00000000
0.28571429 0.00000000 0.00000000
0.29285714 0.00000000 0.00000000
0.30000000 0.00000000 0.00000000
0.30714286 0.00000000 0.00000000
0.31428571 0.00000000 0.00000000
0.32142857 0.00000000 0.00000000
0.32857143 0.00000000 0.00000000
0.33571429 0.00000000 0.00000000
0.34285714 0.00000000 0.00000000
0.35000000 0.00000000 0.00000000
0.35714286 0.00000000 0.00000000
0.36428571 0.00000000 0.00000000
0.37142857 0.00000000 0.00000000
0.37857143 0.00000000 0.00000000
0.38571429 0.00000000 0.00000000
0.39285714 0.00000000 0.00000000
0.40000000 0.00000000 0.00000000
0.40714286 0.00000000 0.00000000
0.41428571 0.00000000 0.00000000
0.42142857 0.00000000 0.00000000
0.42857143 0.00000000 0.00000000
0.43571429 0.00000000 0.00000000
0.44285714 0.00000000 0.00000000
0.45000000 0.00000000 0.00000000
0.45714286 0.00000000 0.00000000
0.46428571 0.00000000 0.00000000
0.47142857 0.00000000 0.00000000
0.47857143 0.00000000 0.00000000
0.48571429 0.00000000 0.00000000
0.49285714 0.00000000 0.00000000
0.50000000 0.00000000 0.00000000
0.50714286 0.00000000 0.00000000
0.51428571 0.00000000 0.00000000
0.52142857 0.00000000 0.00000000
0.52857143 0.00000000 0.00000000
0.53571429 0.00000000 0.00000000
0.54285714 0.00000000 0.00000000
0.55000000 0.00000000 0.00000000
0.55714286 0.00000000 0.00000000
0.56428571 0.00000000 0.00000000
0.57142857 0.00000000 0.00000000
0.57857143 0.00000000 0.00000000
0.58571429 0.00000000 0.00000000
0.59285714 0.00000000 0.00000000
0.60000000 0.00000000 0.00000000
0.60714286 0.00000000 0.00000000
0.61428571 0.00000000 0.00000000
0.62142857 0.00000000 0.00000000
0.62857143 0.00000000 0.00000000
0.63571429 0.00000000 0.00000000
0.64285714 0.00000000 0.00000000
0.65000000 0.00000000 0.00000000
0.65714286 0.00000000 0.00000000
0.66428571 0.00000000 0.00000000
0.67142857 0.00000000 0.00000000
0.67857143 0.00000000 0.00000000
0.68571429 0.00000000 0.00000000
0.69285714 0.00000000 0.00000000
0.70000000 0.00000000 0.00000000
0.70714286 0.00000000 0.00000000
0.71428571 0.00000000 0.00000000
0.72142857 0.00000000 0.00000000
0.72857143 0.00000000 0.00000000
0.73571429 0.00000000 0.00000000
0.74285714 0.00000000 0.00000000
0.75000000 0.00000000 0.00000000
0.75714286 0.00000000 0.00000000
0.76428571 0.00000000 0.00000000
0.77142857 0.00000000 0.00000000
0.77857143 0.00000000 0.00000000
0.78571429 0.00000000 0.00000000
0.79285714 0.00000000 0.00000000
0.80000000 0.00000000 0.00000000
0.80714286 0.00000000 0.00000000
0.81428571 0.00000000 0.00000000
0.82142857 0.00000000 0.00000000
0.82857143 0.00000000 0.00000000
0.83571429 0.00000000 0.00000000
0.84285714 0.00000000 0.00000000
0.85000000 0.00000000 0.00000000
0.85714286 0.00000000 0.00000000
0.86428571 0.00000000 0.00000000
0.87142857 0.00000000 0.00000000
0.87857143 0.00000000 0.00000000
0.88571429 0.00000000 0.00000000
0.89285714 0.00000000 0.00000000
0.90000000 0.00000000 0.00000000
0.90714286 0.00000000 0.00000000
0.91428571 0.00000000 0.00000000
0.92142857 0.00000000 0.00000000
0.92857143 0.00000000 0.00000000
0.93571429 0.00000000 0.00000000
0.94285714 0.00000000 0.00000000
0.95000000 0.00000000 0.00000000
0.95714286 0.00000000 0.00000000
0.96428571 0.00000000 0.00000000
0.97142857 0.00000000 0.00000000
0.97857143 0.00000000 0.00000000
0.98571429 0.00000000 0.00000000
0.99285714 0.00000000 0.00000000
1.00000000 0.00000000 0.00000000
1.00714286 0.00000000 0.00000000
1.01428571 0.00000000 0.00000000
0.00000000 0.00714286 0.00000000
0.00714286 0.00714286 0.00000000
0.01428571 0.00714286 0.00000000
0.02142857 0.00714286 0.00000000
0.02857143 0.00714286 0.00000000
0.03571429 0.00714286 0.00000000
0.04285714 0.00714286 0.00000000
0.05000000 0.00714286 0.00000000
0.05714286 0.00714286 0.00000000
0.06428571 0.00714286 0.00000000
0.07142857 0.00714286 0.00000000
0.07857143 0.00714286 0.00000000
0.08571429 0.00714286 0.00000000
0.09285714 0.00714286 0.00000000
0.10000000 0.00714286 0.00000000
0.10714286 0.00714286 0.00000000
0.11428571 0.00714286 0.00000000
0.12142857 0.00714286 0.00000000
0.12857143 0.00714286 0.00000000
0.13571429 0.00714286 0.00000000
0.14285714 0.00714286 0.00000000
0.15000000 0.00714286 0.00000000
0.15714286 0.00714286 0.00000000
0.16428571 0.00714286 0.00000000
0.17142857 0.00714286 0.00000000
0.17857143 0.00714286 0.00000000
0.18571429 0.00714286 0.00000000
0.19285714 0.00714286 0.00000000
0.20000000 0.00714286 0.00000000
0.20714286 0.00714286 0.00000000
0.21428571 0.00714286 0.00000000
0.22142857 0.00714286 0.00000000
0.22857143 0.00714286 0.00000000
0.23571429 0.00714286 0.00000000
0.24285714 0.00714286 0.00000000
0.25000000 0.00714286 0.00000000
0.25714286 0.00714286 0.00000000
0.26428571 0.00714286 0.00000000
0.27142857 0.00714286 0.00000000
0.27857143 0.00714286 0.00000000
0.28571429 0.00714286 0.00000000
0.29285714 0.00714286 0.00000000
0.30000000 0.00714286 0.00000000
0.30714286 0.00714286 0.00000000
0.31428571 0.00714286 0.00000000
0.32142857 0.00714286 0.00000000
0.32857143 0.00714286 0.00000000
0.33571429 0.00714286 0.00000000
0.34285714 0.00714286 0.00000000
0.35000000 0.00714286 0.00000000
0.35714286 0.00714286 0.00000000
0.36428571 0.00714286 0.00000000
0.37142857 0.00714286 0.00000000
0.37857143 0.00714286 0.00000000
0.38571429 0.00714286 0.00000000
0.39285714 0.00714286 0.00000000
0.40000000 0.00714286 0.00000000
0.40714286 0.00714286 0.00000000
0.41428571 0.00714286 0.00000000
0.42142857 0.00714286 0.00000000
0.42857143 0.00714286 0.00000000
0.43571429 0.00714286 0.00000000
0.44285714 0.00714286 0.00000000
0.45000000 0.00714286 0.00000000
0.45714286 0.00714286 0.00000000
0.46428571 0.00714286 0.00000000
0.47142857 0.00714286 0.00000000
0.47857143 0.00714286 0.00000000
0.48571429 0.00714286 0.00000000
0.49285714 0.00714286 0.00000000
0.50000000 0.00714286 0.00000000
0.50714286 0.00714286 0.00000000
0.51428571 0.00714286 0.00000000
0.52142857 0.00714286 0.00000000
0.52857143 0.00714286 0.00000000
0.53571429 0.00714286 0.00000000
0.54285714 0.00714286 0.00000000
0.55000000 0.00714286 0.00000000
0.55714286 0.00714286 0.00000000
0.56428571 0.00714286 0.00000000
0.57142857 0.00714286 0.00000000
0.57857143 0.00714286 0.00000000
0.58571429 0.00714286 0.00000000
0.59285714 0.00714286 0.00000000
0.60000000 0.00714286 0.00000000
0.60714286 0.00714286 0.00000000
0.61428571 0.00714286 0.00000000
0.62142857 0.00714286 0.00000000
0.62857143 0.00714286 0.00000000
0.63571429 0.00714286 0.00000000
0.64285714 0.00714286 0.00000000
0.65000000 0.00714286 0.00000000
0.65714286 0.00714286 0.00000000
0.66428571 0.00714286 0.00000000
0.67142857 0.00714286 0.00000000
0.67857143 0.00714286 0.00000000
0.68571429 0.00714286 0.00000000
0.69285714 0.00714286 0.00000000
0.70000000 0.00714286 0.00000000
0.70714286 0.00714286 0.00000000
0.71428571 0.00714286 0.00000000
0.72142857 0.00714286 0.00000000
0.72857143 0.00714286 0.00000000
0.73571429 0.00714286 0.00000000
0.74285714 0.00714286 0.00000000
0.75000000 0.00714286 0.00000000
0.75714286 0.00714286 0.00000000
0.76428571 0.00714286 0.00000000
0.77142857 0.00714286 0.00000000
0.77857143 0.00714286 0.00000000
0.78571429 0.00714286 0.00000000
0.79285714 0.00714286 0.00000000
0.80000000 0.00714286 0.00000000
0.80714286 0.00714286 0.00000000
0.81428571 0.00714286 0.00000000
0.82142857 0.00714286 0.00000000
0.82857143 0.00714286 0.00000000
0.83571429 0.00714286 0.00000000
0.84285714 0.00714286 0.00000000
0.85000000 0.00714286 0.00000000
0.85714286 0.00714286 0.00000000
0.86428571 0.00714286 0.00000000
0.87142857 0.00714286 0.00000000
0.87857143 0.00714286 0.00000000
0.88571429 0.00714286 0.00000000
0.89285714 0.00714286 0.00000000
0.90000000 0.00714286 0.00000000
0.90714286 0.00714286 0.00000000
0.91428571 0.00714286 0.00000000
0.92142857 0.00714286 0.00000000
0.92857143 0.00714286 0.00000000
0.93571429 0.00714286 0.00000000
0.94285714 0.00714286 0.00000000
0.95000000 0.00714286 0.00000000
0.95714286 0.00714286 0.00000000
0.96428571 0.00714286 0.00000000
0.97142857 0.00714286 0.00000000
0.97857143 0.00714286 0.00000000
0.98571429 0.00714286 0.00000000
0.99285714 0.00714286 0.00000000
1.00000000 0.00714286 0.00000000
1.00714286 0.00714286 0.00000000
1.01428571 0.00714286 0.00000000
0.00000000 0.01428571 0.00000000
0.00714286 0.01428571 0.00000000
0.01428571 0.01428571 0.00000000
0.02142857 0.01428571 0.00000000
0.02857143 0.01428571 0.00000000
0.03571429 0.01428571 0.00000000
0.04285714 0.01428571 0.00000000
0.05000000 0.01428571 0.00000000
0.05714286 0.01428571 0.00000000
0.06428571 0.01428571 0.00000000
0.07142857 0.01428571 0.00000000
0.07857143 0.01428571 0.00000000
0.08571429 0.01428571 0.00000000
[...]
CELL_DATA 20164
SCALARS pressure double 
 LOOKUP_TABLE default
0.00000000
0.00000000
0.00000000
0.00000000
0.00000000
0.00000000
0.00000000
0.00000000
0.00000000
0.00000000
0.00000000
0.00000000
0.00000000
0.00000000
0.00000000
0.00000000
0.00000000
0.00000000
0.00000000
0.00000000
0.00000000
0.00000000
0.00000000
0.00000000
0.00000000
0.00000000
0.00000000
0.00000000
0.00000000
0.00000000
0.00000000
0.00000000
0.00000000
0.00000000
0.00000000
0.00000000
0.00000000
0.00000000
0.00000000
0.00000000
0.00000000
0.00000000
0.00000000
0.00000000
0.00000000
0.00000000
0.00000000
0.00000000
0.00000000
0.00000000
0.00000000
0.00000000
0.00000000
0.00000000
0.00000000
0.00000000
0.00000000
0.00000000
0.00000000
0.00000000
0.00000000
0.00000000
0.00000000
0.00000000
0.00000000
0.00000000
0.00000000
0.00000000
0.00000000
0.00000000
0.00000000
0.00000000
0.00000000
0.00000000
0.00000000
0.00000000
0.00000000
0.00000000
0.00000000
0.00000000
0.00000000
0.00000000
0.00000000
0.00000000
0.00000000
0.00000000
0.00000000
0.00000000
0.00000000
0.00000000
0.00000000
0.00000000
0.00000000
0.00000000
0.00000000
0.00000000
0.00000000
0.00000000
0.00000000
0.00000000
0.00000000
0.00000000
0.00000000
0.00000000
0.00000000
0.00000000
0.00000000
0.00000000
0.00000000
0.00000000
0.00000000
0.00000000
0.00000000
0.00000000
0.00000000
0.00000000
0.00000000
0.00000000
0.00000000
0.00000000
0.00000000
0.00000000
0.00000000
0.00000000
0.00000000
0.00000000
0.00000000
0.00000000
0.00000000
0.00000000
0.00000000
0.00000000
0.00000000
0.00000000
0.00000000
0.00000000
0.00000000
0.00000000
0.00000000
0.00000000
0.00000000
0.00000000
0.00000000
0.03499388
0.03500050
0.03500336
0.03499832
0.03498393
0.03496006
0.03492728
0.03488642
0.03483840
0.03478410
0.03472439
0.03465999
0.03459158
0.03451971
0.03444485
0.03436741
0.03428769
0.03420597
0.03412246
0.03403733
0.03395072
0.03386275
0.03377354
0.03368318
0.03359178
0.03349943
0.03340627
0.03331241
0.03321801
0.03312324
0.03302827
0.03293333
0.03283865
0.03274448
0.03265110
0.03255883
0.03246798
0.03237891
0.03229199
0.03220760
0.03212616
0.03204808
0.03197380
0.03190376
0.03183842
0.03177824
0.03172367
0.03167516
0.03163317
0.03159813
0.03157046
0.03155057
0.03153883
0.03153559
0.03154115
0.03155578
0.03157971
0.03161311
0.03165609
0.03170869
0.03177090
0.03184264
0.03192374
0.03201395
0.03211295
0.03222034
0.03233561
0.03245819
0.03258741
0.03272252
0.03286269
0.03300701
0.03315449
0.03330408
0.03345467
0.03360510
0.03375415
0.03390059
0.03404315
0.03418056
0.03431154
0.03443485
0.03454924
0.03465353
0.03474660
0.03482739
0.03489490
0.03494827
0.03498670
0.03500955
0.03501626
0.03500643
0.03497981
0.03493625
0.03487580
0.03479860
0.03470498
0.03459540
0.03447044
0.03433083
0.03417740
0.03401112
0.03383304
0.03364429
0.03344610
0.03323974
0.03302653
0.03280783
0.03258500
0.03235941
0.03213244
0.03190542
0.03167966
0.03145642
0.03123692
0.03102231
0.03081368
0.03061206
0.03041839
0.03023357
0.03005840
0.02989364
0.02973997
0.02959802
0.02946834
0.02935144
0.02924779
0.02915777
0.02908170
0.02901984
0.02897231
0.02893910
0.02891997
0.02891437
0.02892127
0.02893894
0.02896460
0.02899390
0.02902038
0.02903519
0.00000000
0.00000000
0.03498725
0.03499388
0.03499495
0.03498872
0.03497430
0.03495157
0.03492085
0.03488273
0.03483792
0.03478716
0.03473114
0.03467053
0.03460591
0.03453778
0.03446660
0.03439274
0.03431650
0.03423816
0.03415793
0.03407598
0.03399248
0.03390755
0.03382130
0.03373387
0.03364534
0.03355584
0.03346549
0.03337442
0.03328278
0.03319074
0.03309848
0.03300621
0.03291415
0.03282255
0.03273168
0.03264183
0.03255332
0.03246648
0.03238166
0.03229924
0.03221960
0.03214314
0.03207027
0.03200143
0.03193705
0.03187755
0.03182338
0.03177497
0.03173276
0.03169715
0.03166856
0.03164736
0.03163392
0.03162857
0.03163161
0.03164329
0.03166383
0.03169340
0.03173210
0.03177999
0.03183704
0.03190319
0.03197827
0.03206206
0.03215424
0.03225443
0.03236216
0.03247687
0.03259794
0.03272463
0.03285617
0.03299167
0.03313020
0.03327075
0.03341227
0.03355363
0.03369368
0.03383123
0.03396508
0.03409401
0.03421679
0.03433223
0.03443915
0.03453643
0.03462297
0.03469776
0.03475988
0.03480848
0.03484281
0.03486224
0.03486626
0.03485449
0.03482667
0.03478270
0.03472259
0.03464652
0.03455478
0.03444782
0.03432621
0.03419064
0.03404191
0.03388095
0.03370877
0.03352646
0.03333518
0.03313616
0.03293066
0.03271998
0.03250542
0.03228829
0.03206991
0.03185154
0.03163444
0.03141982
0.03120883
0.03100257
0.03080208
0.03060834
0.03042226
0.03024467
0.03007634
0.02991798
0.02977023
0.02963367
0.02950880
0.02939609
0.02929593
0.02920864
0.02913448
0.02907359
0.02902601
0.02899162
0.02897008
0.02896074
0.02896252
0.02897379
0.02899212
0.02901409
0.02903519
0.02905001
0.00000000
0.00000000
0.03498442
0.03499283
0.03499384
0.03498728
0.03497299
0.03495105
0.03492180
0.03488572
0.03484341
0.03479546
0.03474249
0.03468508
0.03462372
0.03455890
0.03449102
0.03442042
0.03434740
0.03427221
0.03419507
0.03411615
0.03403561
0.03395359
0.03387020
0.03378556
0.03369979
0.03361300
0.03352532
0.03343687
0.03334782
0.03325832
0.03316854
0.03307870
0.03298900
0.03289969
0.03281102
0.03272328
0.03263676
0.03255178
0.03246868
0.03238782
0.03230956
0.03223428
0.03216240
0.03209430
0.03203042
0.03197115
0.03191694
0.03186819
0.03182531
0.03178872
0.03175880
0.03173592
0.03172044
0.03171268
0.03171292
0.03172143
0.03173840
0.03176402
0.03179839
0.03184156
0.03189353
0.03195423
0.03202351
0.03210117
0.03218691
0.03228037
0.03238110
0.03248856
0.03260217
0.03272123
0.03284498
0.03297259
0.03310315
0.03323571
0.03336923
0.03350266
0.03363487
0.03376472
0.03389104
0.03401267
0.03412843
0.03423716
0.03433773
0.03442903
0.03451004
0.03457977
0.03463732
0.03468188
0.03471273
0.03472927
0.03473099
0.03471754
0.03468867
0.03464427
0.03458439
0.03450916
0.03441891
0.03431404
0.03419513
0.03406283
0.03391795
0.03376135
0.03359403
0.03341705
0.03323152
0.03303862
0.03283959
0.03263566
0.03242810
0.03221816
0.03200712
0.03179619
0.03158657
0.03137943
0.03117586
0.03097693
0.03078362
0.03059687
0.03041753
0.03024640
0.03008420
0.02993160
0.02978919
0.02965749
0.02953698
0.02942806
0.02933106
0.02924626
0.02917384
0.02911389
0.02906640
0.02903119
0.02900789
0.02899589
0.02899423
0.02900154
0.02901598
0.02903515
0.02905626
0.02907650
0.00000000
0.00000000
0.03498962
0.03499917
0.03500029
0.03499357
0.03497931
0.03495785
0.03492957
0.03489496
0.03485451
0.03480878
0.03475830
0.03470355
0.03464500
0.03458307
0.03451812
0.03445047
0.03438040
0.03430814
0.03423389
0.03415782
0.03408009
0.03400083
0.03392015
0.03383818
0.03375502
0.03367080
0.03358562
0.03349964
0.03341298
0.03332580
0.03323829
0.03315062
0.03306302
0.03297570
0.03288892
0.03280295
0.03271806
0.03263457
0.03255280
0.03247308
0.03239578
0.03232126
0.03224990
0.03218210
0.03211825
0.03205877
0.03200405
0.03195450
0.03191053
0.03187252
0.03184087
0.03181593
0.03179805
0.03178755
0.03178472
0.03178981
0.03180303
0.03182456
0.03185451
0.03189295
0.03193989
0.03199526
0.03205894
0.03213073
0.03221037
0.03229751
0.03239173
0.03249253
0.03259933
0.03271147
0.03282822
0.03294879
0.03307231
0.03319784
0.03332439
0.03345093
0.03357637
0.03369962
0.03381954
0.03393499
0.03404482
0.03414791
0.03424316
0.03432949
0.03440590
0.03447144
0.03452521
0.03456644
0.03459442
0.03460855
0.03460837
0.03459351
0.03456374
0.03451896
0.03445920
0.03438461
0.03429550
0.03419229
0.03407551
0.03394583
0.03380401
0.03365094
0.03348755
0.03331489
0.03313406
0.03294619
0.03275249
0.03255417
0.03235245
0.03214855
0.03194370
0.03173908
0.03153585
0.03133513
0.03113799
0.03094542
0.03075839
0.03057777
0.03040439
0.03023900
0.03008227
0.02993482
0.02979720
0.02966989
0.02955331
0.02944783
0.02935371
0.02927120
0.02920043
0.02914145
0.02909423
0.02905859
0.02903419
0.02902051
0.02901681
0.02902208
0.02903504
0.02905424
0.02907819
0.02910583
0.00000000
0.00000000
0.03500452
0.03501392
0.03501459
0.03500738
0.03499284
0.03497146
0.03494369
0.03491002
0.03487092
0.03482688
0.03477836
0.03472581
0.03466964
0.03461021
0.03454786
0.03448286
0.03441547
0.03434590
0.03427434
0.03420094
0.03412585
0.03404919
0.03397107
0.03389160
0.03381089
0.03372906
0.03364622
0.03356249
0.03347801
0.03339294
0.03330744
0.03322168
0.03313588
0.03305026
0.03296503
0.03288047
0.03279685
0.03271445
0.03263360
0.03255460
0.03247782
0.03240360
0.03233230
0.03226432
0.03220004
0.03213986
0.03208416
0.03203335
0.03198782
0.03194796
0.03191414
0.03188674
0.03186609
0.03185251
0.03184630
0.03184771
0.03185697
0.03187424
0.03189968
0.03193334
0.03197526
0.03202538
0.03208361
0.03214977
0.03222361
0.03230480
0.03239296
0.03248760
0.03258818
0.03269407
0.03280455
0.03291887
0.03303618
0.03315557
0.03327609
0.03339672
0.03351641
0.03363408
0.03374862
0.03385892
0.03396385
0.03406231
0.03415321
0.03423551
0.03430821
0.03437037
0.03442113
0.03445970
0.03448540
0.03449764
0.03449596
0.03447999
0.03444951
0.03440443
0.03434476
0.03427068
0.03418246
0.03408054
0.03396544
0.03383783
0.03369844
0.03354815
0.03338790
0.03321870
0.03304164
0.03285784
0.03266847
0.03247473
0.03227781
0.03207891
0.03187921
0.03167988
0.03148204
0.03128678
0.03109512
0.03090803
0.03072643
0.03055116
0.03038300
0.03022266
0.03007077
0.02992790
0.02979457
0.02967120
0.02955818
0.02945581
0.02936434
0.02928395
0.02921477
0.02915682
0.02911006
0.02907434
0.02904940
0.02903487
0.02903020
0.02903475
0.02904777
0.02906851
0.02909642
0.02913147
0.00000000
0.00000000
0.03502945
0.03503737
0.03503677
0.03502849
0.03501321
0.03499145
0.03496374
0.03493053
0.03489229
0.03484946
0.03480246
0.03475169
0.03469750
0.03464022
0.03458014
0.03451750
0.03445253
0.03438542
0.03431633
0.03424540
0.03417276
0.03409851
0.03402277
0.03394563
0.03386719
0.03378756
0.03370684
0.03362515
0.03354262
0.03345940
0.03337563
0.03329150
0.03320719
0.03312291
0.03303889
0.03295537
0.03287261
0.03279089
0.03271052
0.03263179
0.03255506
0.03248065
0.03240894
0.03234028
0.03227506
0.03221367
0.03215648
0.03210391
0.03205634
0.03201415
0.03197772
0.03194742
0.03192359
0.03190657
0.03189664
0.03189408
0.03189913
0.03191196
0.03193274
0.03196154
0.03199842
0.03204334
0.03209623
0.03215693
0.03222522
0.03230079
0.03238328
0.03247223
0.03256712
0.03266734
0.03277222
0.03288101
0.03299288
0.03310695
0.03322230
0.03333792
0.03345278
0.03356582
0.03367595
0.03378206
0.03388305
0.03397782
0.03406530
0.03414446
0.03421430
0.03427388
0.03432236
0.03435895
0.03438297
0.03439383
0.03439107
0.03437434
0.03434340
0.03429815
0.03423864
0.03416500
0.03407754
0.03397667
0.03386291
0.03373692
0.03359946
0.03345137
0.03329359
0.03312712
0.03295305
0.03277249
0.03258659
0.03239653
0.03220349
0.03200866
0.03181320
0.03161824
0.03142490
0.03123421
0.03104718
0.03086476
0.03068781
0.03051716
0.03035353
0.03019760
0.03004996
0.02991115
0.02978162
0.02966177
0.02955194
0.02945239
0.02936334
0.02928493
0.02921728
0.02916040
0.02911426
0.02907877
0.02905374
0.02903893
0.02903403
0.02903870
0.02905260
0.02907550
0.02910747
0.02914904
0.00000000
0.00000000
0.03506405
0.03506935
0.03506661
0.03505662
0.03504004
0.03501743
0.03498930
0.03495611
0.03491829
0.03487624
0.03483036
0.03478097
0.03472841
0.03467294
0.03461482
0.03455427
0.03449146
0.03442656
0.03435972
0.03429104
0.03422064
0.03414862
0.03407505
0.03400003
0.03392365
0.03384599
0.03376716
0.03368726
0.03360642
0.03352476
0.03344243
0.03335960
0.03327643
0.03319314
0.03310993
0.03302704
0.03294471
0.03286322
0.03278285
0.03270391
0.03262672
0.03255162
0.03247895
0.03240908
0.03234238
0.03227924
0.03222004
0.03216517
0.03211502
0.03207000
0.03203046
0.03199680
0.03196936
0.03194847
0.03193446
0.03192761
0.03192815
0.03193631
0.03195224
0.03197606
0.03200783
0.03204756
0.03209517
0.03215054
0.03221347
0.03228369
0.03236085
0.03244451
0.03253418
0.03262927
0.03272913
0.03283303
0.03294016
0.03304968
0.03316064
0.03327207
0.03338297
0.03349226
0.03359887
0.03370170
0.03379965
0.03389163
0.03397657
0.03405344
0.03412123
0.03417903
0.03422596
0.03426124
0.03428419
0.03429423
0.03429087
0.03427376
0.03424268
0.03419751
0.03413828
0.03406515
0.03397840
0.03387845
0.03376582
0.03364118
0.03350526
0.03335892
0.03320309
0.03303878
0.03286706
0.03268905
0.03250590
0.03231876
0.03212883
0.03193727
0.03174524
0.03155385
0.03136418
0.03117728
0.03099412
0.03081562
0.03064261
0.03047589
0.03031616
0.03016404
0.03002011
0.02988484
0.02975867
0.02964194
0.02953495
0.02943794
0.02935109
0.02927453
0.02920833
0.02915254
0.02910714
0.02907207
0.02904725
0.02903255
0.02902787
0.02903308
0.02904818
0.02907330
0.02910885
0.02915569
0.00000000
0.00000000
0.03510766
0.03510938
0.03510371
0.03509135
0.03507292
0.03504896
0.03501996
0.03498636
0.03494855
0.03490690
0.03486176
0.03481341
0.03476213
0.03470817
0.03465172
0.03459297
0.03453207
0.03446914
0.03440431
0.03433766
0.03426928
0.03419925
0.03412763
0.03405450
0.03397993
0.03390400
0.03382680
0.03374841
0.03366895
0.03358854
0.03350731
0.03342540
0.03334300
0.03326029
0.03317746
0.03309475
0.03301238
0.03293062
0.03284976
0.03277007
0.03269188
0.03261552
0.03254133
0.03246967
0.03240090
0.03233542
0.03227362
0.03221588
0.03216260
0.03211417
0.03207100
0.03203346
0.03200192
0.03197673
0.03195821
0.03194668
0.03194240
0.03194560
0.03195646
0.03197512
0.03200168
0.03203615
0.03207850
0.03212862
0.03218634
0.03225141
0.03232350
0.03240221
0.03248706
0.03257749
0.03267285
0.03277245
0.03287548
0.03298111
0.03308841
0.03319643
0.03330414
0.03341051
0.03351444
0.03361484
0.03371062
0.03380067
0.03388392
0.03395933
0.03402590
0.03408268
0.03412880
0.03416348
0.03418602
0.03419582
0.03419239
0.03417538
0.03414454
0.03409977
0.03404107
0.03396861
0.03388266
0.03378364
0.03367207
0.03354862
0.03341402
0.03326913
0.03311490
0.03295232
0.03278247
0.03260648
0.03242549
0.03224067
0.03205319
0.03186423
0.03167493
0.03148641
0.03129973
0.03111592
0.03093594
0.03076068
0.03059097
0.03042756
0.03027113
0.03012227
0.02998152
0.02984932
0.02972607
0.02961207
0.02950760
0.02941285
0.02932798
0.02925309
0.02918827
0.02913353
0.02908890
0.02905437
0.02902992
0.02901554
0.02901126
0.02901716
0.02903344
0.02906047
0.02909887
0.02914962
0.00000000
0.00000000
0.03515946
0.03515679
0.03514748
0.03513215
0.03511135
0.03508558
0.03505528
0.03502087
0.03498269
0.03494108
0.03489633
0.03484870
0.03479841
0.03474565
0.03469059
0.03463338
0.03457412
0.03451292
0.03444985
0.03438499
0.03431839
0.03425010
0.03418019
0.03410868
0.03403566
0.03396117
0.03388529
0.03380809
0.03372968
0.03365015
0.03356964
0.03348827
0.03340620
0.03332362
0.03324070
0.03315766
0.03307474
0.03299218
0.03291025
0.03282924
0.03274946
0.03267123
0.03259489
0.03252081
0.03244935
0.03238090
0.03231585
0.03225460
0.03219757
0.03214515
0.03209775
0.03205577
0.03201959
0.03198959
0.03196611
0.03194948
0.03193999
0.03193789
0.03194340
0.03195668
0.03197785
0.03200696
0.03204399
0.03208888
0.03214146
0.03220153
0.03226877
0.03234280
0.03242317
0.03250933
0.03260066
0.03269646
0.03279596
0.03289832
0.03300263
0.03310793
0.03321321
0.03331741
0.03341946
0.03351825
0.03361268
0.03370163
0.03378403
0.03385881
0.03392496
0.03398153
0.03402762
0.03406244
0.03408526
0.03409547
0.03409259
0.03407622
0.03404612
0.03400216
0.03394436
0.03387286
0.03378793
0.03368999
0.03357956
0.03345730
0.03332395
0.03318038
0.03302753
0.03286641
0.03269811
0.03252375
0.03234449
0.03216151
0.03197598
0.03178907
0.03160194
0.03141569
0.03123140
0.03105008
0.03087267
0.03070007
0.03053306
0.03037240
0.03021872
0.03007260
0.02993454
0.02980495
0.02968420
0.02957256
0.02947027
0.02937750
0.02929437
0.02922098
0.02915740
0.02910365
0.02905977
0.02902578
0.02900175
0.02898773
0.02898386
0.02899037
0.02900759
0.02903603
0.02907644
0.02912981
0.00000000
0.00000000
0.03521858
0.03521084
0.03519728
0.03517843
0.03515477
0.03512675
0.03509476
0.03505917
0.03502028
0.03497839
0.03493373
0.03488651
0.03483691
0.03478508
0.03473115
0.03467521
0.03461735
0.03455761
0.03449605
0.03443272
0.03436763
0.03430082
0.03423232
0.03416216
0.03409037
0.03401700
0.03394210
0.03386574
0.03378799
0.03370895
0.03362872
0.03354744
0.03346523
0.03338228
0.03329875
0.03321485
0.03313079
0.03304683
0.03296323
0.03288026
0.03279823
0.03271747
0.03263831
0.03256112
0.03248627
0.03241416
0.03234518
0.03227974
0.03221828
0.03216120
0.03210893
0.03206189
0.03202049
0.03198511
0.03195614
0.03193392
0.03191878
0.03191100
0.03191082
0.03191843
0.03193398
0.03195755
0.03198916
0.03202876
0.03207623
0.03213137
0.03219390
0.03226347
0.03233962
0.03242184
0.03250953
0.03260198
0.03269845
0.03279810
0.03290002
0.03300325
0.03310678
0.03320956
0.03331048
0.03340845
0.03350233
0.03359101
0.03367338
0.03374837
0.03381494
0.03387211
0.03391898
0.03395472
0.03397859
0.03398996
0.03398831
0.03397323
0.03394447
0.03390188
0.03384547
0.03377535
0.03369181
0.03359525
0.03348618
0.03336527
0.03323327
0.03309104
0.03293953
0.03277977
0.03261284
0.03243989
0.03226208
0.03208060
0.03189664
0.03171137
0.03152596
0.03134152
0.03115912
0.03097977
0.03080442
0.03063393
0.03046911
0.03031067
0.03015925
0.03001538
0.02987955
0.02975214
0.02963349
0.02952384
0.02942339
0.02933230
0.02925067
0.02917857
0.02911605
0.02906315
0.02901993
0.02898642
0.02896274
0.02894900
0.02894542
0.02895231
0.02897010
0.02899938
0.02904092
0.02909571
0.00000000
0.00000000
0.03528409
0.03527071
0.03525237
0.03522952
0.03520256
0.03517190
0.03513786
0.03510076
0.03506086
0.03501838
0.03497352
0.03492644
0.03487728
0.03482612
0.03477305
0.03471813
0.03466139
0.03460285
0.03454254
0.03448045
0.03441660
0.03435097
0.03428358
0.03421443
0.03414354
0.03407092
0.03399663
0.03392070
0.03384319
0.03376418
0.03368377
0.03360207
0.03351920
0.03343533
0.03335060
0.03326523
0.03317942
0.03309341
0.03300745
0.03292183
0.03283685
0.03275283
0.03267011
0.03258907
0.03251008
0.03243354
0.03235987
0.03228951
0.03222287
0.03216041
0.03210257
0.03204979
0.03200250
0.03196113
0.03192608
0.03189773
0.03187643
0.03186250
0.03185622
0.03185781
0.03186744
0.03188524
0.03191125
0.03194544
0.03198774
0.03203796
0.03209585
0.03216108
0.03223322
0.03231177
0.03239613
0.03248563
0.03257951
0.03267694
0.03277702
0.03287878
0.03298122
0.03308325
0.03318378
0.03328168
0.03337582
0.03346504
0.03354823
0.03362428
0.03369214
0.03375080
0.03379931
0.03383683
0.03386259
0.03387593
0.03387630
0.03386329
0.03383659
0.03379604
0.03374164
0.03367349
0.03359186
0.03349713
0.03338982
0.03327059
0.03314020
0.03299950
0.03284946
0.03269111
0.03252556
0.03235394
0.03217745
0.03199729
0.03181466
0.03163075
0.03144673
0.03126373
0.03108283
0.03090503
0.03073129
0.03056248
0.03039939
0.03024272
0.03009308
0.02995102
0.02981698
0.02969134
0.02957438
0.02946635
0.02936741
0.02927769
0.02919727
0.02912622
0.02906456
0.02901234
0.02896961
0.02893644
0.02891295
0.02889932
0.02889581
0.02890277
0.02892069
0.02895018
0.02899202
0.02904715
0.00000000
0.00000000
0.03535504
0.03533555
0.03531197
0.03528469
0.03525406
0.03522041
0.03518400
0.03514509
0.03510389
0.03506057
0.03501526
0.03496807
0.03491908
0.03486834
0.03481588
0.03476172
0.03470584
0.03464824
0.03458888
0.03452775
0.03446482
0.03440005
0.03433343
0.03426493
0.03419456
0.03412231
0.03404819
0.03397224
0.03389450
0.03381503
0.03373391
0.03365124
0.03356712
0.03348171
0.03339516
0.03330766
0.03321940
0.03313063
0.03304158
0.03295255
0.03286384
0.03277576
0.03268868
0.03260297
0.03251901
0.03243723
0.03235806
0.03228194
0.03220933
0.03214069
0.03207650
0.03201723
0.03196333
0.03191527
0.03187348
0.03183838
0.03181035
0.03178975
0.03177689
0.03177203
0.03177537
0.03178708
0.03180722
0.03183582
0.03187281
0.03191805
0.03197130
0.03203225
0.03210051
0.03217557
0.03225686
0.03234371
0.03243538
0.03253104
0.03262978
0.03273064
0.03283258
0.03293454
0.03303539
0.03313398
0.03322916
0.03331977
0.03340463
0.03348264
0.03355269
0.03361375
0.03366485
0.03370508
0.03373367
0.03374990
0.03375321
0.03374314
0.03371936
0.03368169
0.03363008
0.03356463
0.03348558
0.03339331
0.03328834
0.03317129
0.03304294
0.03290415
0.03275588
0.03259918
0.03243515
0.03226497
0.03208983