# vtk DataFile Version 3.0
particle point data
ASCII
DATASET STRUCTURED_GRID
DIMENSIONS 143 143 2
POINTS 40898 double
0.00000000 0.00000000 0.00000000
0.00714286 0.00000000 0.00000000
0.01428571 0.00000000 0.00000000
0.02142857 0.00000000 0.00000000
0.02857143 0.00000000 0.00000000
0.03571429 0.00000000 0.00000000
0.04285714 0.00000000 0.00000000
0.05000000 0.00000000 0.00000000
0.05714286 0.00000000 0.00000000
0.06428571 0.00000000 0.00000000
0.07142857 0.00000000 0.00000000
0.07857143 0.00000000 0.00000000
0.08571429 0.00000000 0.00000000
0.09285714 0.00000000 0.00000000
0.10000000 0.00000000 0.00000000
0.10714286 0.00000000 0.00000000
0.11428571 0.00000000 0.00000000
0.12142857 0.00000000 0.00000000
0.12857143 0.00000000 0.00000000
0.13571429 0.00000000 0.00000000
0.14285714 0.00000000 0.00000000
0.15000000 0.00000000 0.00000000
0.15714286 0.00000000 0.00000000
0.16428571 0.00000000 0.00000000
0.17142857 0.00000000 0.00000000
0.17857143 0.00000000 0.00000000
0.18571429 0.00000000 0.00000000
0.19285714 0.00000000 0.00000000
0.20000000 0.00000000 0.00000000
0.20714286 0.00000000 0.00000000
0.21428571 0.00000000 0.00000000
0.22142857 0.00000000 0.00000000
0.22857143 0.00000000 0.00000000
0.23571429 0.00000000 0.00000000
0.24285714 0.00000000 0.00000000
0.25000000 0.00000000 0.00000000
0.25714286 0.00000000 0.00000000
0.26428571 0.00000000 0.00000000
0.27142857 0.00000000 0.00000000
0.27857143 0.00000000 0.00000000
0.28571429 0.00000000 0.00000000
0.29285714 0.00000000 0.00000000
0.30000000 0.00000000 0.00000000
0.30714286 0.00000000 0.00000000
0.31428571 0.00000000 0.00000000
0.32142857 0.00000000 0.00000000
0.32857143 0.00000000 0.00000000
0.33571429 0.00000000 0.00000000
0.34285714 0.00000000 0.00000000
0.35000000 0.00000000 0.00000000
0.35714286 0.00000000 0.00000000
0.36428571 0.00000000 0.00000000
0.37142857 0.00000000 0.00000000
0.37857143 0.00000000 0.00000000
0.38571429 0.00000000 0.00000000
0.39285714 0.00000000 0.00000000
0.40000000 0.00000000 0.00000000
0.40714286 0.00000000 0.00000000
0.41428571 0.00000000 0.00000000
0.42142857 0.00000000 0.00000000
0.42857143 0.00000000 0.00000000
0.43571429 0.00000000 0.00000000
0.44285714 0.00000000 0.00000000
0.45000000 0.00000000 0.00000000
0.45714286 0.00000000 0.00000000
0.46428571 0.00000000 0.00000000
0.47142857 0.00000000 0.00000000
0.47857143 0.00000000 0.00000000
0.48571429 0.00000000 0.00000000
0.49285714 0.00000000 0.00000000
0.50000000 0.00000000 0.00000000
0.50714286 0.00000000 0.00000000
0.51428571 0.00000000 0.00000000
0.52142857 0.00000000 0.00000000
0.52857143 0.00000000 0.00000000
0.53571429 0.00000000 0.00000000
0.54285714 0.00000000 0.00000000
0.55000000 0.00000000 0.00000000
0.55714286 0.00000000 0.00000000
0.56428571 0.00000000 0.00000000
0.57142857 0.00000000 0.00000000
0.57857143 0.00000000 0.00000000
0.58571429 0.00000000 0.00000000
0.59285714 0.00000000 0.00000000
0.60000000 0.00000000 0.00000000
0.60714286 0.00000000 0.00000000
0.61428571 0.00000000 0.00000000
0.62142857 0.00000000 0.00000000
0.62857143 0.00000000 0.00000000
0.63571429 0.00000000 0.00000000
0.64285714 0.00000000 0.00000000
0.65000000 0.00000000 0.00000000
0.65714286 0.00000000 0.00000000
0.66428571 0.00000000 0.00000000
0.67142857 0.00000000 0.00000000
0.67857143 0.00000000 0.00000000
0.68571429 0.00000000 0.00000000
0.69285714 0.00000000 0.00000000
0.70000000 0.00000000 0.00000000
0.70714286 0.00000000 0.00000000
0.71428571 0.00000000 0.00000000
0.72142857 0.00000000 0.00000000
0.72857143 0.00000000 0.00000000
0.73571429 0.00000000 0.00000000
0.74285714 0.00000000 0.00000000
0.75000000 0.00000000 0.00000000
0.75714286 0.00000000 0.00000000
0.76428571 0.00000000 0.00000000
0.77142857 0.00000000 0.00000000
0.77857143 0.00000000 0.00000000
0.78571429 0.00000000 0.00000000
0.79285714 0.00000000 0.00000000
0.80000000 0.00000000 0.00000000
0.80714286 0.00000000 0.00000000
0.81428571 0.00000000 0.00000000
0.82142857 0.00000000 0.00000000
0.82857143 0.00000000 0.00000000
0.83571429 0.00000000 0.00000000
0.84285714 0.00000000 0.00000000
0.85000000 0.00000000 0.00000000
0.85714286 0.00000000 0.00000000
0.86428571 0.00000000 0.00000000
0.87142857 0.00000000 0.00000000
0.87857143 0.00000000 0.00000000
0.88571429 0.00000000 0.00000000
0.89285714 0.00000000 0.00000000
0.90000000 0.00000000 0.00000000
0.90714286 0.00000000 0.00000000
0.91428571 0.00000000 0.00000000
0.92142857 0.00000000 0.00000000
0.92857143 0.00000000 0.00000000
0.93571429 0.00000000 0.00000000
0.94285714 0.00000000 0.00000000
0.95000000 0.00000000 0.00000000
0.95714286 0.00000000 0.00000000
0.96428571 0.00000000 0.00000000
0.97142857 0.00000000 0.00000000
0.97857143 0.00000000 0.00000000
0.98571429 0.00000000 0.00000000
0.99285714 0.00000000 0.00000000
1.00000000 0.00000000 0.00000000
1.00714286 0.00000000 0.00000000
1.01428571 0.00000000 0.00000000
0.00000000 0.00714286 0.00000000
0.00714286 0.00714286 0.00000000
0.01428571 0.00714286 0.00000000
0.02142857 0.00714286 0.00000000
0.02857143 0.00714286 0.00000000
0.03571429 0.00714286 0.00000000
0.04285714 0.00714286 0.00000000
0.05000000 0.00714286 0.00000000
0.05714286 0.00714286 0.00000000
0.06428571 0.00714286 0.00000000
0.07142857 0.00714286 0.00000000
0.07857143 0.00714286 0.00000000
0.08571429 0.00714286 0.00000000
0.09285714 0.00714286 0.00000000
0.10000000 0.00714286 0.00000000
0.10714286 0.00714286 0.00000000
0.11428571 0.00714286 0.00000000
0.12142857 0.00714286 0.00000000
0.12857143 0.00714286 0.00000000
0.13571429 0.00714286 0.00000000
0.14285714 0.00714286 0.00000000
0.15000000 0.00714286 0.00000000
0.15714286 0.00714286 0.00000000
0.16428571 0.00714286 0.00000000
0.17142857 0.00714286 0.00000000
0.17857143 0.00714286 0.00000000
0.18571429 0.00714286 0.00000000
0.19285714 0.00714286 0.00000000
0.20000000 0.00714286 0.00000000
0.20714286 0.00714286 0.00000000
0.21428571 0.00714286 0.00000000
0.22142857 0.00714286 0.00000000
0.22857143 0.00714286 0.00000000
0.23571429 0.00714286 0.00000000
0.24285714 0.00714286 0.00000000
0.25000000 0.00714286 0.00000000
0.25714286 0.00714286 0.00000000
0.26428571 0.00714286 0.00000000
0.27142857 0.00714286 0.00000000
0.27857143 0.00714286 0.00000000
0.28571429 0.00714286 0.00000000
0.29285714 0.00714286 0.00000000
0.30000000 0.00714286 0.00000000
0.30714286 0.00714286 0.00000000
0.31428571 0.00714286 0.00000000
0.32142857 0.00714286 0.00000000
0.32857143 0.00714286 0.00000000
0.33571429 0.00714286 0.00000000
0.34285714 0.00714286 0.00000000
0.35000000 0.00714286 0.00000000
0.35714286 0.00714286 0.00000000
0.36428571 0.00714286 0.00000000
0.37142857 0.00714286 0.00000000
0.37857143 0.00714286 0.00000000
0.38571429 0.00714286 0.00000000
0.39285714 0.00714286 0.00000000
0.40000000 0.00714286 0.00000000
0.40714286 0.00714286 0.00000000
0.41428571 0.00714286 0.00000000
0.42142857 0.00714286 0.00000000
0.42857143 0.00714286 0.00000000
0.43571429 0.00714286 0.00000000
0.44285714 0.00714286 0.00000000
0.45000000 0.00714286 0.00000000
0.45714286 0.00714286 0.00000000
0.46428571 0.00714286 0.00000000
0.47142857 0.00714286 0.00000000
0.47857143 0.00714286 0.00000000
0.48571429 0.00714286 0.00000000
0.49285714 0.00714286 0.00000000
0.50000000 0.00714286 0.00000000
0.50714286 0.00714286 0.00000000
0.51428571 0.00714286 0.00000000
0.52142857 0.00714286 0.00000000
0.52857143 0.00714286 0.00000000
0.53571429 0.00714286 0.00000000
0.54285714 0.00714286 0.00000000
0.55000000 0.00714286 0.00000000
0.55714286 0.00714286 0.00000000
0.56428571 0.00714286 0.00000000
0.57142857 0.00714286 0.00000000
0.57857143 0.00714286 0.00000000
0.58571429 0.00714286 0.00000000
0.59285714 0.00714286 0.00000000
0.60000000 0.00714286 0.00000000
0.60714286 0.00714286 0.00000000
0.61428571 0.00714286 0.00000000
0.62142857 0.00714286 0.00000000
0.62857143 0.00714286 0.00000000
0.63571429 0.00714286 0.00000000
0.64285714 0.00714286 0.00000000
0.65000000 0.00714286 0.00000000
0.65714286 0.00714286 0.00000000
0.66428571 0.00714286 0.00000000
0.67142857 0.00714286 0.00000000
0.67857143 0.00714286 0.00000000
0.68571429 0.00714286 0.00000000
0.69285714 0.00714286 0.00000000
0.70000000 0.00714286 0.00000000
0.70714286 0.00714286 0.00000000
0.71428571 0.00714286 0.00000000
0.72142857 0.00714286 0.00000000
0.72857143 0.00714286 0.00000000
0.73571429 0.00714286 0.00000000
0.74285714 0.00714286 0.00000000
0.75000000 0.00714286 0.00000000
0.75714286 0.00714286 0.00000000
0.76428571 0.00714286 0.00000000
0.77142857 0.00714286 0.00000000
0.77857143 0.00714286 0.00000000
0.78571429 0.00714286 0.00000000
0.79285714 0.00714286 0.00000000
0.80000000 0.00714286 0.00000000
0.80714286 0.00714286 0.00000000
0.81428571 0.00714286 0.00000000
0.82142857 0.00714286 0.00000000
0.82857143 0.00714286 0.00000000
0.83571429 0.00714286 0.00000000
0.84285714 0.00714286 0.00000000
0.85000000 0.00714286 0.00000000
0.85714286 0.00714286 0.00000000
0.86428571 0.00714286 0.00000000
0.87142857 0.00714286 0.00000000
0.87857143 0.00714286 0.00000000
0.88571429 0.00714286 0.00000000
0.89285714 0.00714286 0.00000000
0.90000000 0.00714286 0.00000000
0.90714286 0.00714286 0.00000000
0.91428571 0.00714286 0.00000000
0.92142857 0.00714286 0.00000000
0.92857143 0.00714286 0.00000000
0.93571429 0.00714286 0.00000000
0.94285714 0.00714286 0.00000000
0.95000000 0.00714286 0.00000000
0.95714286 0.00714286 0.00000000
0.96428571 0.00714286 0.00000000
0.97142857 0.00714286 0.00000000
0.97857143 0.00714286 0.00000000
0.98571429 0.00714286 0.00000000
0.99285714 0.00714286 0.00000000
1.00000000 0.00714286 0.00000000
1.00714286 0.00714286 0.00000000
1.01428571 0.00714286 0.00000000
0.00000000 0.01428571 0.00000000
0.00714286 0.01428571 0.00000000
0.01428571 0.01428571 0.00000000
0.02142857 0.01428571 0.00000000
0.02857143 0.01428571 0.00000000
0.03571429 0.01428571 0.00000000
0.04285714 0.01428571 0.00000000
0.05000000 0.01428571 0.00000000
0.05714286 0.01428571 0.00000000
0.06428571 0.01428571 0.00000000
0.07142857 0.01428571 0.00000000
0.07857143 0.01428571 0.00000000
0.08571429 0.01428571 0.00000000
[...]
CELL_DATA 20164
SCALARS pressure double 
 LOOKUP_TABLE default
0.00000000
0.00000000
0.00000000
0.00000000
0.00000000
0.00000000
0.00000000
0.00000000
0.00000000
0.00000000
0.00000000
0.00000000
0.00000000
0.00000000
0.00000000
0.00000000
0.00000000
0.00000000
0.00000000
0.00000000
0.00000000
0.00000000
0.00000000
0.00000000
0.00000000
0.00000000
0.00000000
0.00000000
0.00000000
0.00000000
0.00000000
0.00000000
0.00000000
0.00000000
0.00000000
0.00000000
0.00000000
0.00000000
0.00000000
0.00000000
0.00000000
0.00000000
0.00000000
0.00000000
0.00000000
0.00000000
0.00000000
0.00000000
0.00000000
0.00000000
0.00000000
0.00000000
0.00000000
0.00000000
0.00000000
0.00000000
0.00000000
0.00000000
0.00000000
0.00000000
0.00000000
0.00000000
0.00000000
0.00000000
0.00000000
0.00000000
0.00000000
0.00000000
0.00000000
0.00000000
0.00000000
0.00000000
0.00000000
0.00000000
0.00000000
0.00000000
0.00000000
0.00000000
0.00000000
0.00000000
0.00000000
0.00000000
0.00000000
0.00000000
0.00000000
0.00000000
0.00000000
0.00000000
0.00000000
0.00000000
0.00000000
0.00000000
0.00000000
0.00000000
0.00000000
0.00000000
0.00000000
0.00000000
0.00000000
0.00000000
0.00000000
0.00000000
0.00000000
0.00000000
0.00000000
0.00000000
0.00000000
0.00000000
0.00000000
0.00000000
0.00000000
0.00000000
0.00000000
0.00000000
0.00000000
0.00000000
0.00000000
0.00000000
0.00000000
0.00000000
0.00000000
0.00000000
0.00000000
0.00000000
0.00000000
0.00000000
0.00000000
0.00000000
0.00000000
0.00000000
0.00000000
0.00000000
0.00000000
0.00000000
0.00000000
0.00000000
0.00000000
0.00000000
0.00000000
0.00000000
0.00000000
0.00000000
0.00000000
0.02691067
0.02691245
0.02690943
0.02690041
0.02688558
0.02686570
0.02684164
0.02681429
0.02678446
0.02675284
0.02672003
0.02668653
0.02665274
0.02661899
0.02658554
0.02655258
0.02652025
0.02648867
0.02645790
0.02642799
0.02639897
0.02637085
0.02634363
0.02631732
0.02629192
0.02626743
0.02624385
0.02622121
0.02619954
0.02617887
0.02615924
0.02614072
0.02612337
0.02610728
0.02609254
0.02607925
0.02606753
0.02605750
0.02604928
0.02604301
0.02603883
0.02603688
0.02603731
0.02604027
0.02604589
0.02605433
0.02606572
0.02608019
0.02609787
0.02611886
0.02614329
0.02617123
0.02620275
0.02623793
0.02627679
0.02631935
0.02636561
0.02641554
0.02646908
0.02652616
0.02658665
0.02665043
0.02671731
0.02678709
0.02685954
0.02693439
0.02701133
0.02709003
0.02717012
0.02725121
0.02733287
0.02741464
0.02749605
0.02757661
0.02765579
0.02773305
0.02780786
0.02787967
0.02794791
0.02801204
0.02807152
0.02812581
0.02817441
0.02821683
0.02825260
0.02828131
0.02830257
0.02831605
0.02832144
0.02831852
0.02830710
0.02828706
0.02825833
0.02822092
0.02817490
0.02812038
0.02805757
0.02798673
0.02790815
0.02782222
0.02772937
0.02763006
0.02752483
0.02741423
0.02729887
0.02717936
0.02705637
0.02693057
0.02680263
0.02667326
0.02654314
0.02641296
0.02628341
0.02615516
0.02602885
0.02590512
0.02578459
0.02566784
0.02555543
0.02544790
0.02534576
0.02524948
0.02515951
0.02507629
0.02500019
0.02493158
0.02487079
0.02481810
0.02477374
0.02473791
0.02471068
0.02469207
0.02468190
0.02467982
0.02468516
0.02469680
0.02471301
0.02473110
0.02474717
0.02475596
0.00000000
0.00000000
0.02690889
0.02691067
0.02690742
0.02689895
0.02688549
0.02686758
0.02684591
0.02682116
0.02679401
0.02676507
0.02673486
0.02670384
0.02667239
0.02664081
0.02660936
0.02657825
0.02654761
0.02651756
0.02648820
0.02645957
0.02643172
0.02640467
0.02637845
0.02635306
0.02632853
0.02630485
0.02628206
0.02626017
0.02623922
0.02621924
0.02620029
0.02618243
0.02616572
0.02615024
0.02613609
0.02612336
0.02611216
0.02610261
0.02609482
0.02608892
0.02608505
0.02608334
0.02608392
0.02608693
0.02609252
0.02610080
0.02611191
0.02612596
0.02614309
0.02616339
0.02618695
0.02621386
0.02624419
0.02627798
0.02631527
0.02635607
0.02640038
0.02644816
0.02649936
0.02655389
0.02661164
0.02667248
0.02673624
0.02680271
0.02687168
0.02694288
0.02701602
0.02709077
0.02716679
0.02724369
0.02732107
0.02739850
0.02747551
0.02755163
0.02762637
0.02769921
0.02776964
0.02783713
0.02790116
0.02796119
0.02801672
0.02806725
0.02811227
0.02815134
0.02818402
0.02820991
0.02822865
0.02823991
0.02824343
0.02823898
0.02822639
0.02820555
0.02817641
0.02813897
0.02809330
0.02803954
0.02797786
0.02790851
0.02783181
0.02774811
0.02765782
0.02756140
0.02745935
0.02735222
0.02724058
0.02712503
0.02700619
0.02688472
0.02676126
0.02663648
0.02651103
0.02638559
0.02626079
0.02613729
0.02601569
0.02589662
0.02578065
0.02566833
0.02556021
0.02545679
0.02535855
0.02526594
0.02517938
0.02509925
0.02502593
0.02495972
0.02490091
0.02484975
0.02480641
0.02477103
0.02474365
0.02472418
0.02471241
0.02470793
0.02471005
0.02471772
0.02472945
0.02474310
0.02475595
0.02476475
0.00000000
0.00000000
0.02691193
0.02691393
0.02691064
0.02690247
0.02688984
0.02687324
0.02685324
0.02683043
0.02680536
0.02677856
0.02675050
0.02672157
0.02669214
0.02666248
0.02663285
0.02660341
0.02657434
0.02654575
0.02651772
0.02649033
0.02646362
0.02643763
0.02641238
0.02638791
0.02636422
0.02634135
0.02631931
0.02629814
0.02627786
0.02625853
0.02624020
0.02622292
0.02620676
0.02619181
0.02617815
0.02616587
0.02615507
0.02614587
0.02613839
0.02613273
0.02612903
0.02612742
0.02612801
0.02613095
0.02613635
0.02614434
0.02615504
0.02616858
0.02618504
0.02620454
0.02622715
0.02625297
0.02628204
0.02631441
0.02635012
0.02638917
0.02643156
0.02647724
0.02652617
0.02657826
0.02663340
0.02669147
0.02675230
0.02681569
0.02688143
0.02694927
0.02701892
0.02709007
0.02716240
0.02723552
0.02730905
0.02738258
0.02745566
0.02752783
0.02759863
0.02766756
0.02773413
0.02779782
0.02785815
0.02791459
0.02796667
0.02801390
0.02805581
0.02809196
0.02812194
0.02814537
0.02816190
0.02817122
0.02817308
0.02816727
0.02815363
0.02813205
0.02810250
0.02806497
0.02801954
0.02796634
0.02790555
0.02783741
0.02776223
0.02768036
0.02759219
0.02749817
0.02739879
0.02729457
0.02718606
0.02707385
0.02695854
0.02684075
0.02672112
0.02660027
0.02647885
0.02635749
0.02623682
0.02611745
0.02599998
0.02588497
0.02577300
0.02566460
0.02556026
0.02546047
0.02536568
0.02527631
0.02519276
0.02511538
0.02504449
0.02498039
0.02492333
0.02487351
0.02483108
0.02479612
0.02476864
0.02474854
0.02473559
0.02472940
0.02472935
0.02473459
0.02474394
0.02475591
0.02476879
0.02478083
0.00000000
0.00000000
0.02692107
0.02692247
0.02691874
0.02691047
0.02689816
0.02688230
0.02686340
0.02684195
0.02681843
0.02679331
0.02676698
0.02673980
0.02671209
0.02668411
0.02665607
0.02662817
0.02660054
0.02657330
0.02654653
0.02652032
0.02649471
0.02646973
0.02644544
0.02642185
0.02639899
0.02637688
0.02635557
0.02633507
0.02631542
0.02629668
0.02627890
0.02626213
0.02624645
0.02623193
0.02621865
0.02620671
0.02619621
0.02618724
0.02617993
0.02617439
0.02617073
0.02616908
0.02616955
0.02617227
0.02617736
0.02618493
0.02619511
0.02620800
0.02622370
0.02624230
0.02626389
0.02628854
0.02631630
0.02634722
0.02638133
0.02641863
0.02645912
0.02650275
0.02654948
0.02659923
0.02665190
0.02670735
0.02676543
0.02682595
0.02688871
0.02695345
0.02701991
0.02708779
0.02715677
0.02722649
0.02729657
0.02736662
0.02743621
0.02750489
0.02757222
0.02763772
0.02770091
0.02776129
0.02781840
0.02787174
0.02792083
0.02796521
0.02800443
0.02803806
0.02806571
0.02808701
0.02810163
0.02810927
0.02810968
0.02810267
0.02808809
0.02806583
0.02803586
0.02799819
0.02795289
0.02790009
0.02783997
0.02777278
0.02769881
0.02761840
0.02753194
0.02743986
0.02734266
0.02724082
0.02713490
0.02702546
0.02691309
0.02679839
0.02668197
0.02656446
0.02644645
0.02632858
0.02621144
0.02609562
0.02598169
0.02587021
0.02576172
0.02565671
0.02555568
0.02545907
0.02536731
0.02528079
0.02519988
0.02512491
0.02505617
0.02499393
0.02493840
0.02488977
0.02484815
0.02481362
0.02478615
0.02476566
0.02475194
0.02474465
0.02474333
0.02474731
0.02475578
0.02476782
0.02478246
0.02479900
0.00000000
0.00000000
0.02693622
0.02693613
0.02693137
0.02692250
0.02691003
0.02689441
0.02687610
0.02685552
0.02683311
0.02680924
0.02678428
0.02675852
0.02673225
0.02670571
0.02667909
0.02665255
0.02662623
0.02660023
0.02657465
0.02654955
0.02652497
0.02650098
0.02647759
0.02645485
0.02643277
0.02641140
0.02639075
0.02637088
0.02635181
0.02633360
0.02631630
0.02629996
0.02628467
0.02627048
0.02625749
0.02624578
0.02623546
0.02622661
0.02621935
0.02621379
0.02621004
0.02620821
0.02620843
0.02621080
0.02621545
0.02622249
0.02623202
0.02624415
0.02625898
0.02627659
0.02629707
0.02632048
0.02634687
0.02637630
0.02640879
0.02644434
0.02648294
0.02652457
0.02656918
0.02661668
0.02666698
0.02671995
0.02677545
0.02683330
0.02689328
0.02695518
0.02701873
0.02708365
0.02714961
0.02721627
0.02728328
0.02735025
0.02741675
0.02748238
0.02754667
0.02760918
0.02766944
0.02772698
0.02778132
0.02783199
0.02787852
0.02792047
0.02795740
0.02798890
0.02801457
0.02803406
0.02804704
0.02805324
0.02805241
0.02804436
0.02802894
0.02800606
0.02797569
0.02793783
0.02789257
0.02784003
0.02778040
0.02771391
0.02764086
0.02756157
0.02747645
0.02738592
0.02729044
0.02719052
0.02708668
0.02697949
0.02686952
0.02675735
0.02664358
0.02652882
0.02641367
0.02629871
0.02618454
0.02607172
0.02596081
0.02585235
0.02574683
0.02564475
0.02554657
0.02545271
0.02536357
0.02527953
0.02520093
0.02512806
0.02506120
0.02500058
0.02494641
0.02489884
0.02485797
0.02482387
0.02479652
0.02477586
0.02476171
0.02475384
0.02475191
0.02475547
0.02476403
0.02477708
0.02479423
0.02481537
0.00000000
0.00000000
0.02695677
0.02695447
0.02694810
0.02693815
0.02692505
0.02690922
0.02689106
0.02687094
0.02684923
0.02682625
0.02680231
0.02677769
0.02675261
0.02672728
0.02670188
0.02667655
0.02665141
0.02662655
0.02660206
0.02657798
0.02655439
0.02653131
0.02650878
0.02648683
0.02646549
0.02644480
0.02642478
0.02640547
0.02638692
0.02636917
0.02635227
0.02633629
0.02632128
0.02630734
0.02629453
0.02628295
0.02627268
0.02626383
0.02625650
0.02625079
0.02624681
0.02624468
0.02624450
0.02624640
0.02625048
0.02625684
0.02626561
0.02627686
0.02629071
0.02630723
0.02632651
0.02634861
0.02637358
0.02640147
0.02643231
0.02646609
0.02650283
0.02654248
0.02658501
0.02663034
0.02667837
0.02672900
0.02678207
0.02683741
0.02689484
0.02695413
0.02701502
0.02707724
0.02714049
0.02720443
0.02726871
0.02733296
0.02739677
0.02745972
0.02752140
0.02758134
0.02763909
0.02769419
0.02774619
0.02779460
0.02783899
0.02787891
0.02791392
0.02794363
0.02796765
0.02798563
0.02799726
0.02800225
0.02800037
0.02799143
0.02797530
0.02795187
0.02792112
0.02788306
0.02783777
0.02778538
0.02772606
0.02766007
0.02758768
0.02750924
0.02742512
0.02733576
0.02724161
0.02714317
0.02704096
0.02693554
0.02682747
0.02671732
0.02660569
0.02649316
0.02638033
0.02626777
0.02615604
0.02604572
0.02593733
0.02583138
0.02572838
0.02562878
0.02553301
0.02544150
0.02535462
0.02527270
0.02519608
0.02512502
0.02505979
0.02500059
0.02494760
0.02490097
0.02486080
0.02482714
0.02479999
0.02477932
0.02476503
0.02475694
0.02475486
0.02475854
0.02476772
0.02478222
0.02480199
0.02482728
0.00000000
0.00000000
0.02698193
0.02697689
0.02696843
0.02695694
0.02694280
0.02692636
0.02690796
0.02688793
0.02686657
0.02684417
0.02682097
0.02679721
0.02677308
0.02674877
0.02672441
0.02670013
0.02667603
0.02665220
0.02662869
0.02660557
0.02658288
0.02656065
0.02653891
0.02651770
0.02649705
0.02647697
0.02645752
0.02643871
0.02642060
0.02640323
0.02638666
0.02637094
0.02635614
0.02634233
0.02632960
0.02631802
0.02630770
0.02629871
0.02629117
0.02628518
0.02628085
0.02627827
0.02627757
0.02627885
0.02628222
0.02628779
0.02629565
0.02630592
0.02631867
0.02633400
0.02635198
0.02637269
0.02639616
0.02642246
0.02645161
0.02648361
0.02651848
0.02655617
0.02659666
0.02663988
0.02668573
0.02673411
0.02678489
0.02683790
0.02689295
0.02694983
0.02700829
0.02706808
0.02712889
0.02719040
0.02725227
0.02731414
0.02737560
0.02743626
0.02749569
0.02755345
0.02760909
0.02766216
0.02771220
0.02775875
0.02780138
0.02783963
0.02787309
0.02790135
0.02792404
0.02794080
0.02795133
0.02795535
0.02795262
0.02794296
0.02792623
0.02790234
0.02787125
0.02783299
0.02778763
0.02773529
0.02767617
0.02761050
0.02753857
0.02746072
0.02737732
0.02728880
0.02719563
0.02709829
0.02699731
0.02689323
0.02678660
0.02667802
0.02656805
0.02645727
0.02634627
0.02623562
0.02612587
0.02601756
0.02591121
0.02580734
0.02570640
0.02560886
0.02551511
0.02542557
0.02534057
0.02526045
0.02518550
0.02511599
0.02505214
0.02499415
0.02494219
0.02489638
0.02485683
0.02482360
0.02479672
0.02477616
0.02476189
0.02475384
0.02475189
0.02475598
0.02476602
0.02478204
0.02480422
0.02483298
0.00000000
0.00000000
0.02701090
0.02700271
0.02699178
0.02697839
0.02696285
0.02694545
0.02692649
0.02690623
0.02688492
0.02686280
0.02684008
0.02681694
0.02679355
0.02677006
0.02674658
0.02672320
0.02670002
0.02667710
0.02665448
0.02663222
0.02661035
0.02658889
0.02656788
0.02654734
0.02652730
0.02650778
0.02648881
0.02647043
0.02645269
0.02643562
0.02641928
0.02640372
0.02638902
0.02637525
0.02636248
0.02635079
0.02634028
0.02633103
0.02632315
0.02631675
0.02631191
0.02630875
0.02630738
0.02630790
0.02631042
0.02631505
0.02632188
0.02633103
0.02634256
0.02635659
0.02637317
0.02639239
0.02641429
0.02643893
0.02646633
0.02649652
0.02652950
0.02656524
0.02660372
0.02664486
0.02668860
0.02673483
0.02678343
0.02683423
0.02688706
0.02694172
0.02699796
0.02705554
0.02711417
0.02717352
0.02723328
0.02729307
0.02735251
0.02741121
0.02746874
0.02752468
0.02757857
0.02762998
0.02767844
0.02772351
0.02776473
0.02780167
0.02783392
0.02786106
0.02788273
0.02789856
0.02790826
0.02791154
0.02790817
0.02789796
0.02788077
0.02785652
0.02782516
0.02778672
0.02774127
0.02768895
0.02762993
0.02756445
0.02749281
0.02741534
0.02733242
0.02724448
0.02715198
0.02705541
0.02695529
0.02685217
0.02674660
0.02663916
0.02653042
0.02642096
0.02631135
0.02620216
0.02609393
0.02598719
0.02588247
0.02578023
0.02568096
0.02558506
0.02549296
0.02540501
0.02532156
0.02524292
0.02516936
0.02510112
0.02503842
0.02498145
0.02493034
0.02488525
0.02484624
0.02481341
0.02478679
0.02476641
0.02475227
0.02474437
0.02474270
0.02474729
0.02475821
0.02477563
0.02479984
0.02483135
0.00000000
0.00000000
0.02704290
0.02703129
0.02701757
0.02700198
0.02698474
0.02696610
0.02694628
0.02692551
0.02690399
0.02688191
0.02685944
0.02683671
0.02681387
0.02679102
0.02676826
0.02674565
0.02672325
0.02670112
0.02667930
0.02665780
0.02663666
0.02661590
0.02659554
0.02657559
0.02655608
0.02653704
0.02651848
0.02650045
0.02648298
0.02646612
0.02644992
0.02643443
0.02641972
0.02640586
0.02639292
0.02638100
0.02637017
0.02636053
0.02635217
0.02634519
0.02633971
0.02633582
0.02633362
0.02633324
0.02633476
0.02633830
0.02634396
0.02635184
0.02636203
0.02637462
0.02638969
0.02640732
0.02642755
0.02645045
0.02647605
0.02650437
0.02653543
0.02656920
0.02660566
0.02664476
0.02668644
0.02673058
0.02677708
0.02682579
0.02687653
0.02692912
0.02698333
0.02703890
0.02709556
0.02715301
0.02721091
0.02726891
0.02732663
0.02738368
0.02743964
0.02749409
0.02754659
0.02759667
0.02764391
0.02768783
0.02772801
0.02776398
0.02779535
0.02782169
0.02784264
0.02785784
0.02786697
0.02786976
0.02786596
0.02785540
0.02783791
0.02781342
0.02778189
0.02774333
0.02769782
0.02764549
0.02758652
0.02752116
0.02744968
0.02737244
0.02728981
0.02720222
0.02711014
0.02701405
0.02691450
0.02681200
0.02670714
0.02660048
0.02649259
0.02638405
0.02627543
0.02616729
0.02606018
0.02595461
0.02585110
0.02575011
0.02565210
0.02555749
0.02546666
0.02537997
0.02529774
0.02522027
0.02514781
0.02508059
0.02501882
0.02496265
0.02491225
0.02486772
0.02482917
0.02479667
0.02477029
0.02475008
0.02473610
0.02472838
0.02472701
0.02473209
0.02474378
0.02476234
0.02478813
0.02482168
0.00000000
0.00000000
0.02707721
0.02706197
0.02704524
0.02702720
0.02700801
0.02698788
0.02696697
0.02694546
0.02692351
0.02690125
0.02687882
0.02685632
0.02683386
0.02681149
0.02678929
0.02676731
0.02674558
0.02672413
0.02670299
0.02668216
0.02666167
0.02664151
0.02662171
0.02660227
0.02658321
0.02656456
0.02654632
0.02652855
0.02651126
0.02649450
0.02647833
0.02646279
0.02644796
0.02643389
0.02642066
0.02640836
0.02639708
0.02638689
0.02637790
0.02637021
0.02636392
0.02635913
0.02635596
0.02635450
0.02635487
0.02635716
0.02636150
0.02636796
0.02637666
0.02638768
0.02640110
0.02641701
0.02643546
0.02645652
0.02648023
0.02650661
0.02653569
0.02656746
0.02660189
0.02663895
0.02667857
0.02672067
0.02676514
0.02681184
0.02686061
0.02691126
0.02696358
0.02701732
0.02707221
0.02712796
0.02718424
0.02724070
0.02729697
0.02735266
0.02740736
0.02746063
0.02751204
0.02756115
0.02760749
0.02765061
0.02769006
0.02772541
0.02775622
0.02778209
0.02780263
0.02781748
0.02782633
0.02782888
0.02782490
0.02781418
0.02779659
0.02777202
0.02774044
0.02770186
0.02765636
0.02760405
0.02754513
0.02747984
0.02740846
0.02733134
0.02724886
0.02716146
0.02706959
0.02697377
0.02687452
0.02677238
0.02666792
0.02656172
0.02645435
0.02634638
0.02623840
0.02613095
0.02602457
0.02591980
0.02581712
0.02571701
0.02561991
0.02552622
0.02543632
0.02535056
0.02526924
0.02519265
0.02512102
0.02505457
0.02499349
0.02493793
0.02488805
0.02484394
0.02480572
0.02477347
0.02474727
0.02472719
0.02471331
0.02470574
0.02470460
0.02471005
0.02472232
0.02474171
0.02476862
0.02480356
0.00000000
0.00000000
0.02711316
0.02709413
0.02707422
0.02705353
0.02703220
0.02701037
0.02698817
0.02696572
0.02694314
0.02692053
0.02689797
0.02687553
0.02685328
0.02683125
0.02680949
0.02678801
0.02676682
0.02674595
0.02672538
0.02670512
0.02668517
0.02666553
0.02664619
0.02662717
0.02660847
0.02659011
0.02657210
0.02655448
0.02653726
0.02652050
0.02650425
0.02648854
0.02647345
0.02645904
0.02644538
0.02643257
0.02642067
0.02640978
0.02640000
0.02639143
0.02638417
0.02637831
0.02637398
0.02637128
0.02637032
0.02637119
0.02637402
0.02637891
0.02638595
0.02639524
0.02640687
0.02642092
0.02643746
0.02645656
0.02647827
0.02650262
0.02652964
0.02655934
0.02659170
0.02662669
0.02666425
0.02670432
0.02674679
0.02679154
0.02683841
0.02688722
0.02693777
0.02698982
0.02704311
0.02709735
0.02715221
0.02720736
0.02726242
0.02731701
0.02737071
0.02742310
0.02747374
0.02752217
0.02756794
0.02761058
0.02764965
0.02768470
0.02771529
0.02774100
0.02776145
0.02777626
0.02778511
0.02778771
0.02778380
0.02777318
0.02775570
0.02773125
0.02769979
0.02766133
0.02761594
0.02756374
0.02750491
0.02743971
0.02736841
0.02729136
0.02720896
0.02712163
0.02702984
0.02693411
0.02683497
0.02673296
0.02662866
0.02652265
0.02641550
0.02630781
0.02620014
0.02609305
0.02598708
0.02588277
0.02578059
0.02568101
0.02558447
0.02549138
0.02540209
0.02531694
0.02523622
0.02516022
0.02508915
0.02502321
0.02496260
0.02490745
0.02485790
0.02481406
0.02477603
0.02474390
0.02471776
0.02469772
0.02468387
0.02467635
0.02467531
0.02468096
0.02469357
0.02471345
0.02474102
0.02477677
0.00000000
0.00000000
0.02715009
0.02712718
0.02710394
0.02708046
0.02705683
0.02703314
0.02700948
0.02698593
0.02696256
0.02693943
0.02691659
0.02689407
0.02687189
0.02685007
0.02682861
0.02680751
0.02678676
0.02676635
0.02674625
0.02672646
0.02670695
0.02668772
0.02666876
0.02665006
0.02663162
0.02661344
0.02659555
0.02657797
0.02656072
0.02654383
0.02652736
0.02651135
0.02649587
0.02648097
0.02646674
0.02645325
0.02644058
0.02642882
0.02641808
0.02640845
0.02640002
0.02639292
0.02638725
0.02638311
0.02638062
0.02637989
0.02638103
0.02638415
0.02638935
0.02639673
0.02640639
0.02641842
0.02643289
0.02644989
0.02646946
0.02649166
0.02651652
0.02654405
0.02657426
0.02660712
0.02664260
0.02668061
0.02672109
0.02676390
0.02680891
0.02685595
0.02690482
0.02695530
0.02700712
0.02706000
0.02711362
0.02716765
0.02722173
0.02727545
0.02732842
0.02738019
0.02743033
0.02747839
0.02752389
0.02756638
0.02760539
0.02764047
0.02767117
0.02769706
0.02771774
0.02773285
0.02774202
0.02774497
0.02774143
0.02773118
0.02771406
0.02768997
0.02765885
0.02762069
0.02757558
0.02752362
0.02746500
0.02739995
0.02732878
0.02725182
0.02716946
0.02708216
0.02699037
0.02689462
0.02679544
0.02669340
0.02658906