# vtk DataFile Version 3.0
particle point data
ASCII
DATASET STRUCTURED_GRID
DIMENSIONS 143 143 2
POINTS 40898 double
0.00000000 0.00000000 0.00000000
0.00714286 0.00000000 0.00000000
0.01428571 0.00000000 0.00000000
0.02142857 0.00000000 0.00000000
0.02857143 0.00000000 0.00000000
0.03571429 0.00000000 0.00000000
0.04285714 0.00000000 0.00000000
0.05000000 0.00000000 0.00000000
0.05714286 0.00000000 0.00000000
0.06428571 0.00000000 0.00000000
0.07142857 0.00000000 0.00000000
0.07857143 0.00000000 0.00000000
0.08571429 0.00000000 0.00000000
0.09285714 0.00000000 0.00000000
0.10000000 0.00000000 0.00000000
0.10714286 0.00000000 0.00000000
0.11428571 0.00000000 0.00000000
0.12142857 0.00000000 0.00000000
0.12857143 0.00000000 0.00000000
0.13571429 0.00000000 0.00000000
0.14285714 0.00000000 0.00000000
0.15000000 0.00000000 0.00000000
0.15714286 0.00000000 0.00000000
0.16428571 0.00000000 0.00000000
0.17142857 0.00000000 0.00000000
0.17857143 0.00000000 0.00000000
0.18571429 0.00000000 0.00000000
0.19285714 0.00000000 0.00000000
0.20000000 0.00000000 0.00000000
0.20714286 0.00000000 0.00000000
0.21428571 0.00000000 0.00000000
0.22142857 0.00000000 0.00000000
0.22857143 0.00000000 0.00000000
0.23571429 0.00000000 0.00000000
0.24285714 0.00000000 0.00000000
0.25000000 0.00000000 0.00000000
0.25714286 0.00000000 0.00000000
0.26428571 0.00000000 0.00000000
0.27142857 0.00000000 0.00000000
0.27857143 0.00000000 0.00000000
0.28571429 0.00000000 0.00000000
0.29285714 0.00000000 0.00000000
0.30000000 0.00000000 0.00000000
0.30714286 0.00000000 0.00000000
0.31428571 0.00000000 0.00000000
0.32142857 0.00000000 0.00000000
0.32857143 0.00000000 0.00000000
0.33571429 0.00000000 0.00000000
0.34285714 0.00000000 0.00000000
0.35000000 0.00000000 0.00000000
0.35714286 0.00000000 0.00000000
0.36428571 0.00000000 0.00000000
0.37142857 0.00000000 0.00000000
0.37857143 0.00000000 0.00000000
0.38571429 0.00000000 0.00000000
0.39285714 0.00000000 0.00000000
0.40000000 0.00000000 0.00000000
0.40714286 0.00000000 0.00000000
0.41428571 0.00000000 0.00000000
0.42142857 0.00000000 0.00000000
0.42857143 0.00000000 0.00000000
0.43571429 0.00000000 0.00000000
0.44285714 0.00000000 0.00000000
0.45000000 0.00000000 0.00000000
0.45714286 0.00000000 0.00000000
0.46428571 0.00000000 0.00000000
0.47142857 0.00000000 0.00000000
0.47857143 0.00000000 0.00000000
0.48571429 0.00000000 0.00000000
0.49285714 0.00000000 0.00000000
0.50000000 0.00000000 0.00000000
0.50714286 0.00000000 0.00000000
0.51428571 0.00000000 0.00000000
0.52142857 0.00000000 0.00000000
0.52857143 0.00000000 0.00000000
0.53571429 0.00000000 0.00000000
0.54285714 0.00000000 0.00000000
0.55000000 0.00000000 0.00000000
0.55714286 0.00000000 0.00000000
0.56428571 0.00000000 0.00000000
0.57142857 0.00000000 0.00000000
0.57857143 0.00000000 0.00000000
0.58571429 0.00000000 0.00000000
0.59285714 0.00000000 0.00000000
0.60000000 0.00000000 0.00000000
0.60714286 0.00000000 0.00000000
0.61428571 0.00000000 0.00000000
0.62142857 0.00000000 0.00000000
0.62857143 0.00000000 0.00000000
0.63571429 0.00000000 0.00000000
0.64285714 0.00000000 0.00000000
0.65000000 0.00000000 0.00000000
0.65714286 0.00000000 0.00000000
0.66428571 0.00000000 0.00000000
0.67142857 0.00000000 0.00000000
0.67857143 0.00000000 0.00000000
0.68571429 0.00000000 0.00000000
0.69285714 0.00000000 0.00000000
0.70000000 0.00000000 0.00000000
0.70714286 0.00000000 0.00000000
0.71428571 0.00000000 0.00000000
0.72142857 0.00000000 0.00000000
0.72857143 0.00000000 0.00000000
0.73571429 0.00000000 0.00000000
0.74285714 0.00000000 0.00000000
0.75000000 0.00000000 0.00000000
0.75714286 0.00000000 0.00000000
0.76428571 0.00000000 0.00000000
0.77142857 0.00000000 0.00000000
0.77857143 0.00000000 0.00000000
0.78571429 0.00000000 0.00000000
0.79285714 0.00000000 0.00000000
0.80000000 0.00000000 0.00000000
0.80714286 0.00000000 0.00000000
0.81428571 0.00000000 0.00000000
0.82142857 0.00000000 0.00000000
0.82857143 0.00000000 0.00000000
0.83571429 0.00000000 0.00000000
0.84285714 0.00000000 0.00000000
0.85000000 0.00000000 0.00000000
0.85714286 0.00000000 0.00000000
0.86428571 0.00000000 0.00000000
0.87142857 0.00000000 0.00000000
0.87857143 0.00000000 0.00000000
0.88571429 0.00000000 0.00000000
0.89285714 0.00000000 0.00000000
0.90000000 0.00000000 0.00000000
0.90714286 0.00000000 0.00000000
0.91428571 0.00000000 0.00000000
0.92142857 0.00000000 0.00000000
0.92857143 0.00000000 0.00000000
0.93571429 0.00000000 0.00000000
0.94285714 0.00000000 0.00000000
0.95000000 0.00000000 0.00000000
0.95714286 0.00000000 0.00000000
0.96428571 0.00000000 0.00000000
0.97142857 0.00000000 0.00000000
0.97857143 0.00000000 0.00000000
0.98571429 0.00000000 0.00000000
0.99285714 0.00000000 0.00000000
1.00000000 0.00000000 0.00000000
1.00714286 0.00000000 0.00000000
1.01428571 0.00000000 0.00000000
0.00000000 0.00714286 0.00000000
0.00714286 0.00714286 0.00000000
0.01428571 0.00714286 0.00000000
0.02142857 0.00714286 0.00000000
0.02857143 0.00714286 0.00000000
0.03571429 0.00714286 0.00000000
0.04285714 0.00714286 0.00000000
0.05000000 0.00714286 0.00000000
0.05714286 0.00714286 0.00000000
0.06428571 0.00714286 0.00000000
0.07142857 0.00714286 0.00000000
0.07857143 0.00714286 0.00000000
0.08571429 0.00714286 0.00000000
0.09285714 0.00714286 0.00000000
0.10000000 0.00714286 0.00000000
0.10714286 0.00714286 0.00000000
0.11428571 0.00714286 0.00000000
0.12142857 0.00714286 0.00000000
0.12857143 0.00714286 0.00000000
0.13571429 0.00714286 0.00000000
0.14285714 0.00714286 0.00000000
0.15000000 0.00714286 0.00000000
0.15714286 0.00714286 0.00000000
0.16428571 0.00714286 0.00000000
0.17142857 0.00714286 0.00000000
0.17857143 0.00714286 0.00000000
0.18571429 0.00714286 0.00000000
0.19285714 0.00714286 0.00000000
0.20000000 0.00714286 0.00000000
0.20714286 0.00714286 0.00000000
0.21428571 0.00714286 0.00000000
0.22142857 0.00714286 0.00000000
0.22857143 0.00714286 0.00000000
0.23571429 0.00714286 0.00000000
0.24285714 0.00714286 0.00000000
0.25000000 0.00714286 0.00000000
0.25714286 0.00714286 0.00000000
0.26428571 0.00714286 0.00000000
0.27142857 0.00714286 0.00000000
0.27857143 0.00714286 0.00000000
0.28571429 0.00714286 0.00000000
0.29285714 0.00714286 0.00000000
0.30000000 0.00714286 0.00000000
0.30714286 0.00714286 0.00000000
0.31428571 0.00714286 0.00000000
0.32142857 0.00714286 0.00000000
0.32857143 0.00714286 0.00000000
0.33571429 0.00714286 0.00000000
0.34285714 0.00714286 0.00000000
0.35000000 0.00714286 0.00000000
0.35714286 0.00714286 0.00000000
0.36428571 0.00714286 0.00000000
0.37142857 0.00714286 0.00000000
0.37857143 0.00714286 0.00000000
0.38571429 0.00714286 0.00000000
0.39285714 0.00714286 0.00000000
0.40000000 0.00714286 0.00000000
0.40714286 0.00714286 0.00000000
0.41428571 0.00714286 0.00000000
0.42142857 0.00714286 0.00000000
0.42857143 0.00714286 0.00000000
0.43571429 0.00714286 0.00000000
0.44285714 0.00714286 0.00000000
0.45000000 0.00714286 0.00000000
0.45714286 0.00714286 0.00000000
0.46428571 0.00714286 0.00000000
0.47142857 0.00714286 0.00000000
0.47857143 0.00714286 0.00000000
0.48571429 0.00714286 0.00000000
0.49285714 0.00714286 0.00000000
0.50000000 0.00714286 0.00000000
0.50714286 0.00714286 0.00000000
0.51428571 0.00714286 0.00000000
0.52142857 0.00714286 0.00000000
0.52857143 0.00714286 0.00000000
0.53571429 0.00714286 0.00000000
0.54285714 0.00714286 0.00000000
0.55000000 0.00714286 0.00000000
0.55714286 0.00714286 0.00000000
0.56428571 0.00714286 0.00000000
0.57142857 0.00714286 0.00000000
0.57857143 0.00714286 0.00000000
0.58571429 0.00714286 0.00000000
0.59285714 0.00714286 0.00000000
0.60000000 0.00714286 0.00000000
0.60714286 0.00714286 0.00000000
0.61428571 0.00714286 0.00000000
0.62142857 0.00714286 0.00000000
0.62857143 0.00714286 0.00000000
0.63571429 0.00714286 0.00000000
0.64285714 0.00714286 0.00000000
0.65000000 0.00714286 0.00000000
0.65714286 0.00714286 0.00000000
0.66428571 0.00714286 0.00000000
0.67142857 0.00714286 0.00000000
0.67857143 0.00714286 0.00000000
0.68571429 0.00714286 0.00000000
0.69285714 0.00714286 0.00000000
0.70000000 0.00714286 0.00000000
0.70714286 0.00714286 0.00000000
0.71428571 0.00714286 0.00000000
0.72142857 0.00714286 0.00000000
0.72857143 0.00714286 0.00000000
0.73571429 0.00714286 0.00000000
0.74285714 0.00714286 0.00000000
0.75000000 0.00714286 0.00000000
0.75714286 0.00714286 0.00000000
0.76428571 0.00714286 0.00000000
0.77142857 0.00714286 0.00000000
0.77857143 0.00714286 0.00000000
0.78571429 0.00714286 0.00000000
0.79285714 0.00714286 0.00000000
0.80000000 0.00714286 0.00000000
0.80714286 0.00714286 0.00000000
0.81428571 0.00714286 0.00000000
0.82142857 0.00714286 0.00000000
0.82857143 0.00714286 0.00000000
0.83571429 0.00714286 0.00000000
0.84285714 0.00714286 0.00000000
0.85000000 0.00714286 0.00000000
0.85714286 0.00714286 0.00000000
0.86428571 0.00714286 0.00000000
0.87142857 0.00714286 0.00000000
0.87857143 0.00714286 0.00000000
0.88571429 0.00714286 0.00000000
0.89285714 0.00714286 0.00000000
0.90000000 0.00714286 0.00000000
0.90714286 0.00714286 0.00000000
0.91428571 0.00714286 0.00000000
0.92142857 0.00714286 0.00000000
0.92857143 0.00714286 0.00000000
0.93571429 0.00714286 0.00000000
0.94285714 0.00714286 0.00000000
0.95000000 0.00714286 0.00000000
0.95714286 0.00714286 0.00000000
0.96428571 0.00714286 0.00000000
0.97142857 0.00714286 0.00000000
0.97857143 0.00714286 0.00000000
0.98571429 0.00714286 0.00000000
0.99285714 0.00714286 0.00000000
1.00000000 0.00714286 0.00000000
1.00714286 0.00714286 0.00000000
1.01428571 0.00714286 0.00000000
0.00000000 0.01428571 0.00000000
0.00714286 0.01428571 0.00000000
0.01428571 0.01428571 0.00000000
0.02142857 0.01428571 0.00000000
0.02857143 0.01428571 0.00000000
0.03571429 0.01428571 0.00000000
0.04285714 0.01428571 0.00000000
0.05000000 0.01428571 0.00000000
0.05714286 0.01428571 0.00000000
0.06428571 0.01428571 0.00000000
0.07142857 0.01428571 0.00000000
0.07857143 0.01428571 0.00000000
0.08571429 0.01428571 0.00000000
[...]
CELL_DATA 20164
SCALARS pressure double 
 LOOKUP_TABLE default
0.00000000
0.00000000
0.00000000
0.00000000
0.00000000
0.00000000
0.00000000
0.00000000
0.00000000
0.00000000
0.00000000
0.00000000
0.00000000
0.00000000
0.00000000
0.00000000
0.00000000
0.00000000
0.00000000
0.00000000
0.00000000
0.00000000
0.00000000
0.00000000
0.00000000
0.00000000
0.00000000
0.00000000
0.00000000
0.00000000
0.00000000
0.00000000
0.00000000
0.00000000
0.00000000
0.00000000
0.00000000
0.00000000
0.00000000
0.00000000
0.00000000
0.00000000
0.00000000
0.00000000
0.00000000
0.00000000
0.00000000
0.00000000
0.00000000
0.00000000
0.00000000
0.00000000
0.00000000
0.00000000
0.00000000
0.00000000
0.00000000
0.00000000
0.00000000
0.00000000
0.00000000
0.00000000
0.00000000
0.00000000
0.00000000
0.00000000
0.00000000
0.00000000
0.00000000
0.00000000
0.00000000
0.00000000
0.00000000
0.00000000
0.00000000
0.00000000
0.00000000
0.00000000
0.00000000
0.00000000
0.00000000
0.00000000
0.00000000
0.00000000
0.00000000
0.00000000
0.00000000
0.00000000
0.00000000
0.00000000
0.00000000
0.00000000
0.00000000
0.00000000
0.00000000
0.00000000
0.00000000
0.00000000
0.00000000
0.00000000
0.00000000
0.00000000
0.00000000
0.00000000
0.00000000
0.00000000
0.00000000
0.00000000
0.00000000
0.00000000
0.00000000
0.00000000
0.00000000
0.00000000
0.00000000
0.00000000
0.00000000
0.00000000
0.00000000
0.00000000
0.00000000
0.00000000
0.00000000
0.00000000
0.00000000
0.00000000
0.00000000
0.00000000
0.00000000
0.00000000
0.00000000
0.00000000
0.00000000
0.00000000
0.00000000
0.00000000
0.00000000
0.00000000
0.00000000
0.00000000
0.00000000
0.00000000
0.00000000
0.03589435
0.03590176
0.03590560
0.03590125
0.03588698
0.03586255
0.03582844
0.03578548
0.03573461
0.03567676
0.03561282
0.03554357
0.03546973
0.03539190
0.03531059
0.03522623
0.03513918
0.03504973
0.03495812
0.03486454
0.03476915
0.03467210
0.03457351
0.03447349
0.03437215
0.03426962
0.03416603
0.03406151
0.03395624
0.03385039
0.03374416
0.03363779
0.03353154
0.03342567
0.03332050
0.03321636
0.03311360
0.03301262
0.03291381
0.03281759
0.03272443
0.03263478
0.03254911
0.03246793
0.03239173
0.03232102
0.03225631
0.03219811
0.03214691
0.03210320
0.03206746
0.03204014
0.03202167
0.03201244
0.03201279
0.03202305
0.03204348
0.03207427
0.03211557
0.03216746
0.03222993
0.03230291
0.03238624
0.03247969
0.03258290
0.03269547
0.03281687
0.03294649
0.03308363
0.03322747
0.03337715
0.03353167
0.03368999
0.03385098
0.03401343
0.03417610
0.03433768
0.03449682
0.03465216
0.03480232
0.03494592
0.03508159
0.03520800
0.03532385
0.03542791
0.03551903
0.03559613
0.03565824
0.03570451
0.03573419
0.03574671
0.03574159
0.03571854
0.03567740
0.03561818
0.03554105
0.03544634
0.03533450
0.03520618
0.03506213
0.03490325
0.03473055
0.03454516
0.03434830
0.03414127
0.03392543
0.03370219
0.03347301
0.03323933
0.03300265
0.03276440
0.03252602
0.03228891
0.03205441
0.03182381
0.03159834
0.03137915
0.03116733
0.03096388
0.03076974
0.03058575
0.03041271
0.03025132
0.03010223
0.02996603
0.02984325
0.02973434
0.02963972
0.02955971
0.02949458
0.02944445
0.02940931
0.02938892
0.02938270
0.02938960
0.02940781
0.02943444
0.02946496
0.02949261
0.02950814
0.00000000
0.00000000
0.03588694
0.03589436
0.03589615
0.03589032
0.03587581
0.03585236
0.03582026
0.03578007
0.03573251
0.03567834
0.03561828
0.03555304
0.03548323
0.03540941
0.03533205
0.03525156
0.03516828
0.03508250
0.03499446
0.03490436
0.03481237
0.03471865
0.03462332
0.03452650
0.03442833
0.03432893
0.03422842
0.03412697
0.03402473
0.03392188
0.03381863
0.03371519
0.03361181
0.03350877
0.03340635
0.03330488
0.03320469
0.03310616
0.03300966
0.03291561
0.03282444
0.03273658
0.03265249
0.03257264
0.03249752
0.03242760
0.03236337
0.03230532
0.03225393
0.03220967
0.03217298
0.03214431
0.03212406
0.03211262
0.03211032
0.03211746
0.03213430
0.03216103
0.03219779
0.03224466
0.03230165
0.03236869
0.03244562
0.03253222
0.03262817
0.03273308
0.03284644
0.03296768
0.03309611
0.03323099
0.03337145
0.03351658
0.03366535
0.03381669
0.03396946
0.03412245
0.03427442
0.03442408
0.03457012
0.03471121
0.03484605
0.03497331
0.03509174
0.03520007
0.03529715
0.03538186
0.03545317
0.03551016
0.03555201
0.03557802
0.03558762
0.03558039
0.03555603
0.03551440
0.03545551
0.03537953
0.03528677
0.03517769
0.03505288
0.03491308
0.03475916
0.03459209
0.03441294
0.03422288
0.03402316
0.03381509
0.03360001
0.03337932
0.03315440
0.03292666
0.03269750
0.03246828
0.03224033
0.03201493
0.03179333
0.03157669
0.03136610
0.03116261
0.03096716
0.03078065
0.03060388
0.03043759
0.03028245
0.03013905
0.03000793
0.02988956
0.02978435
0.02969263
0.02961465
0.02955057
0.02950043
0.02946410
0.02944123
0.02943113
0.02943272
0.02944426
0.02946325
0.02948611
0.02950813
0.02952366
0.00000000
0.00000000
0.03588314
0.03589259
0.03589432
0.03588806
0.03587356
0.03585083
0.03582016
0.03578203
0.03573703
0.03568578
0.03562893
0.03556706
0.03550074
0.03543044
0.03535662
0.03527965
0.03519985
0.03511749
0.03503282
0.03494602
0.03485728
0.03476673
0.03467453
0.03458079
0.03448564
0.03438922
0.03429165
0.03419309
0.03409369
0.03399363
0.03389311
0.03379234
0.03369156
0.03359103
0.03349103
0.03339186
0.03329386
0.03319738
0.03310277
0.03301044
0.03292079
0.03283424
0.03275124
0.03267224
0.03259768
0.03252805
0.03246380
0.03240541
0.03235335
0.03230805
0.03226997
0.03223952
0.03221711
0.03220309
0.03219782
0.03220158
0.03221461
0.03223713
0.03226928
0.03231112
0.03236268
0.03242391
0.03249465
0.03257472
0.03266380
0.03276152
0.03286741
0.03298092
0.03310141
0.03322814
0.03336031
0.03349702
0.03363730
0.03378012
0.03392438
0.03406891
0.03421253
0.03435397
0.03449200
0.03462532
0.03475268
0.03487279
0.03498443
0.03508641
0.03517759
0.03525689
0.03532333
0.03537601
0.03541414
0.03543705
0.03544419
0.03543514
0.03540963
0.03536752
0.03530884
0.03523373
0.03514251
0.03503562
0.03491365
0.03477731
0.03462743
0.03446496
0.03429094
0.03410651
0.03391286
0.03371126
0.03350301
0.03328945
0.03307193
0.03285180
0.03263039
0.03240903
0.03218899
0.03197150
0.03175774
0.03154884
0.03134584
0.03114972
0.03096140
0.03078171
0.03061142
0.03045121
0.03030170
0.03016345
0.03003694
0.02992258
0.02982072
0.02973164
0.02965553
0.02959248
0.02954247
0.02950532
0.02948064
0.02946780
0.02946581
0.02947324
0.02948816
0.02950809
0.02953013
0.02955133
0.00000000
0.00000000
0.03588765
0.03589852
0.03590047
0.03589403
0.03587952
0.03585722
0.03582751
0.03579086
0.03574778
0.03569884
0.03564459
0.03558554
0.03552220
0.03545499
0.03538432
0.03531052
0.03523390
0.03515472
0.03507319
0.03498951
0.03490383
0.03481631
0.03472707
0.03463626
0.03454398
0.03445037
0.03435556
0.03425969
0.03416293
0.03406543
0.03396739
0.03386902
0.03377054
0.03367220
0.03357427
0.03347705
0.03338085
0.03328599
0.03319285
0.03310178
0.03301318
0.03292747
0.03284506
0.03276638
0.03269189
0.03262202
0.03255725
0.03249801
0.03244477
0.03239797
0.03235803
0.03232537
0.03230038
0.03228343
0.03227486
0.03227495
0.03228396
0.03230210
0.03232951
0.03236629
0.03241246
0.03246798
0.03253273
0.03260652
0.03268909
0.03278006
0.03287901
0.03298539
0.03309862
0.03321797
0.03334269
0.03347190
0.03360468
0.03374002
0.03387685
0.03401407
0.03415049
0.03428493
0.03441614
0.03454290
0.03466396
0.03477809
0.03488409
0.03498080
0.03506710
0.03514195
0.03520438
0.03525352
0.03528860
0.03530897
0.03531408
0.03530353
0.03527706
0.03523454
0.03517598
0.03510154
0.03501152
0.03490636
0.03478664
0.03465304
0.03450640
0.03434764
0.03417777
0.03399790
0.03380920
0.03361291
0.03341029
0.03320265
0.03299129
0.03277753
0.03256267
0.03234797
0.03213468
0.03192397
0.03171700
0.03151482
0.03131845
0.03112882
0.03094679
0.03077316
0.03060865
0.03045389
0.03030945
0.03017585
0.03005351
0.02994279
0.02984401
0.02975737
0.02968303
0.02962104
0.02957135
0.02953378
0.02950799
0.02949342
0.02948931
0.02949461
0.02950799
0.02952795
0.02955294
0.02958187
0.00000000
0.00000000
0.03590244
0.03591339
0.03591497
0.03590807
0.03589326
0.03587102
0.03584181
0.03580611
0.03576441
0.03571723
0.03566504
0.03560832
0.03554750
0.03548296
0.03541507
0.03534413
0.03527041
0.03519415
0.03511553
0.03503475
0.03495195
0.03486727
0.03478084
0.03469277
0.03460318
0.03451220
0.03441994
0.03432656
0.03423219
0.03413700
0.03404117
0.03394490
0.03384840
0.03375191
0.03365570
0.03356003
0.03346520
0.03337155
0.03327941
0.03318913
0.03310110
0.03301571
0.03293337
0.03285450
0.03277953
0.03270890
0.03264306
0.03258245
0.03252752
0.03247870
0.03243642
0.03240109
0.03237310
0.03235283
0.03234060
0.03233672
0.03234145
0.03235501
0.03237756
0.03240919
0.03244997
0.03249986
0.03255876
0.03262651
0.03270286
0.03278747
0.03287994
0.03297975
0.03308634
0.03319902
0.03331706
0.03343962
0.03356579
0.03369461
0.03382504
0.03395599
0.03408631
0.03421484
0.03434036
0.03446168
0.03457756
0.03468680
0.03478822
0.03488067
0.03496307
0.03503437
0.03509363
0.03513998
0.03517268
0.03519106
0.03519460
0.03518290
0.03515570
0.03511286
0.03505442
0.03498052
0.03489145
0.03478767
0.03466972
0.03453831
0.03439424
0.03423841
0.03407185
0.03389563
0.03371091
0.03351891
0.03332086
0.03311805
0.03291175
0.03270326
0.03249384
0.03228473
0.03207712
0.03187218
0.03167100
0.03147461
0.03128398
0.03110000
0.03092350
0.03075522
0.03059583
0.03044592
0.03030603
0.03017661
0.03005804
0.02995064
0.02985467
0.02977032
0.02969768
0.02963681
0.02958765
0.02955004
0.02952371
0.02950826
0.02950316
0.02950771
0.02952114
0.02954270
0.02957181
0.02960846
0.00000000
0.00000000
0.03592799
0.03593759
0.03593796
0.03593001
0.03591442
0.03589179
0.03586260
0.03582737
0.03578656
0.03574064
0.03569005
0.03563521
0.03557649
0.03551425
0.03544879
0.03538039
0.03530928
0.03523567
0.03515974
0.03508164
0.03500151
0.03491947
0.03483563
0.03475011
0.03466300
0.03457443
0.03448451
0.03439337
0.03430114
0.03420798
0.03411405
0.03401956
0.03392469
0.03382968
0.03373478
0.03364024
0.03354636
0.03345344
0.03336181
0.03327182
0.03318383
0.03309822
0.03301540
0.03293578
0.03285977
0.03278781
0.03272033
0.03265779
0.03260061
0.03254924
0.03250410
0.03246561
0.03243416
0.03241013
0.03239387
0.03238568
0.03238584
0.03239459
0.03241209
0.03243848
0.03247382
0.03251810
0.03257126
0.03263314
0.03270353
0.03278212
0.03286851
0.03296224
0.03306275
0.03316940
0.03328146
0.03339813
0.03351853
0.03364171
0.03376666
0.03389231
0.03401753
0.03414117
0.03426205
0.03437897
0.03449072
0.03459610
0.03469394
0.03478312
0.03486253
0.03493116
0.03498806
0.03503237
0.03506334
0.03508031
0.03508277
0.03507031
0.03504266
0.03499970
0.03494145
0.03486806
0.03477982
0.03467717
0.03456066
0.03443099
0.03428896
0.03413547
0.03397152
0.03379820
0.03361664
0.03342805
0.03323367
0.03303475
0.03283255
0.03262836
0.03242341
0.03221891
0.03201604
0.03181594
0.03161965
0.03142819
0.03124249
0.03106339
0.03089169
0.03072809
0.03057321
0.03042761
0.03029176
0.03016608
0.03005091
0.02994653
0.02985315
0.02977092
0.02969994
0.02964024
0.02959177
0.02955442
0.02952803
0.02951232
0.02950697
0.02951164
0.02952598
0.02954978
0.02958309
0.02962651
0.00000000
0.00000000
0.03596401
0.03597103
0.03596926
0.03595956
0.03594265
0.03591911
0.03588948
0.03585425
0.03581387
0.03576877
0.03571934
0.03566596
0.03560897
0.03554866
0.03548531
0.03541914
0.03535037
0.03527915
0.03520566
0.03513000
0.03505231
0.03497269
0.03489123
0.03480802
0.03472316
0.03463676
0.03454890
0.03445972
0.03436933
0.03427788
0.03418553
0.03409245
0.03399883
0.03390489
0.03381086
0.03371699
0.03362357
0.03353088
0.03343924
0.03334898
0.03326047
0.03317407
0.03309018
0.03300919
0.03293154
0.03285763
0.03278792
0.03272283
0.03266282
0.03260832
0.03255976
0.03251757
0.03248216
0.03245391
0.03243318
0.03242030
0.03241557
0.03241922
0.03243146
0.03245245
0.03248226
0.03252092
0.03256838
0.03262452
0.03268915
0.03276198
0.03284265
0.03293071
0.03302564
0.03312681
0.03323353
0.03334500
0.03346038
0.03357873
0.03369905
0.03382029
0.03394134
0.03406106
0.03417826
0.03429176
0.03440035
0.03450285
0.03459808
0.03468490
0.03476224
0.03482905
0.03488440
0.03492742
0.03495735
0.03497353
0.03497544
0.03496266
0.03493494
0.03489213
0.03483425
0.03476146
0.03467403
0.03457241
0.03445715
0.03432893
0.03418857
0.03403696
0.03387510
0.03370408
0.03352503
0.03333915
0.03314768
0.03295186
0.03275295
0.03255222
0.03235089
0.03215016
0.03195120
0.03175510
0.03156291
0.03137560
0.03119407
0.03101915
0.03085158
0.03069203
0.03054109
0.03039926
0.03026699
0.03014464
0.03003252
0.02993085
0.02983984
0.02975959
0.02969020
0.02963168
0.02958401
0.02954715
0.02952100
0.02950542
0.02950030
0.02950554
0.02952111
0.02954718
0.02958420
0.02963306
0.00000000
0.00000000
0.03600988
0.03601325
0.03600848
0.03599634
0.03597751
0.03595256
0.03592202
0.03588634
0.03584596
0.03580126
0.03575261
0.03570033
0.03564471
0.03558600
0.03552444
0.03546021
0.03539348
0.03532440
0.03525307
0.03517962
0.03510412
0.03502666
0.03494732
0.03486618
0.03478330
0.03469877
0.03461269
0.03452515
0.03443627
0.03434617
0.03425501
0.03416294
0.03407013
0.03397680
0.03388317
0.03378947
0.03369597
0.03360295
0.03351072
0.03341961
0.03332996
0.03324214
0.03315653
0.03307353
0.03299357
0.03291706
0.03284444
0.03277616
0.03271267
0.03265441
0.03260183
0.03255537
0.03251544
0.03248245
0.03245678
0.03243878
0.03242876
0.03242700
0.03243371
0.03244909
0.03247323
0.03250618
0.03254794
0.03259841
0.03265741
0.03272469
0.03279992
0.03288268
0.03297245
0.03306864
0.03317057
0.03327747
0.03338850
0.03350275
0.03361922
0.03373688
0.03385461
0.03397128
0.03408572
0.03419673
0.03430310
0.03440365
0.03449719
0.03458258
0.03465873
0.03472459
0.03477921
0.03482171
0.03485132
0.03486737
0.03486933
0.03485677
0.03482942
0.03478714
0.03472993
0.03465794
0.03457146
0.03447090
0.03435685
0.03422996
0.03409106
0.03394105
0.03378093
0.03361178
0.03343475
0.03325104
0.03306188
0.03286853
0.03267224
0.03247428
0.03227586
0.03207818
0.03188239
0.03168957
0.03150076
0.03131690
0.03113887
0.03096748
0.03080342
0.03064734
0.03049979
0.03036125
0.03023210
0.03011268
0.03000325
0.02990402
0.02981514
0.02973671
0.02966880
0.02961144
0.02956463
0.02952837
0.02950262
0.02948739
0.02948269
0.02948863
0.02950541
0.02953344
0.02957338
0.02962626
0.00000000
0.00000000
0.03606477
0.03606360
0.03605505
0.03603982
0.03601851
0.03599166
0.03595974
0.03592320
0.03588242
0.03583776
0.03578952
0.03573799
0.03568341
0.03562599
0.03556592
0.03550334
0.03543838
0.03537114
0.03530173
0.03523020
0.03515663
0.03508106
0.03500356
0.03492418
0.03484297
0.03476001
0.03467536
0.03458911
0.03450135
0.03441221
0.03432180
0.03423028
0.03413781
0.03404459
0.03395082
0.03385672
0.03376256
0.03366861
0.03357516
0.03348254
0.03339107
0.03330114
0.03321311
0.03312739
0.03304440
0.03296456
0.03288833
0.03281614
0.03274847
0.03268577
0.03262851
0.03257713
0.03253208
0.03249379
0.03246264
0.03243903
0.03242330
0.03241573
0.03241659
0.03242609
0.03244436
0.03247148
0.03250747
0.03255226
0.03260571
0.03266759
0.03273760
0.03281533
0.03290029
0.03299192
0.03308955
0.03319243
0.03329972
0.03341053
0.03352387
0.03363869
0.03375391
0.03386837
0.03398090
0.03409030
0.03419535
0.03429486
0.03438762
0.03447249
0.03454834
0.03461412
0.03466886
0.03471166
0.03474172
0.03475838
0.03476107
0.03474935
0.03472294
0.03468168
0.03462557
0.03455473
0.03446946
0.03437018
0.03425744
0.03413193
0.03399446
0.03384593
0.03368736
0.03351984
0.03334451
0.03316259
0.03297532
0.03278396
0.03258977
0.03239402
0.03219793
0.03200269
0.03180946
0.03161930
0.03143324
0.03125221
0.03107708
0.03090862
0.03074751
0.03059436
0.03044970
0.03031396
0.03018750
0.03007061
0.02996354
0.02986645
0.02977946
0.02970266
0.02963610
0.02957982
0.02953384
0.02949819
0.02947290
0.02945805
0.02945379
0.02946035
0.02947808
0.02950754
0.02954950
0.02960503
0.00000000
0.00000000
0.03612777
0.03612131
0.03610832
0.03608940
0.03606508
0.03603586
0.03600215
0.03596436
0.03592282
0.03587784
0.03582969
0.03577859
0.03572475
0.03566832
0.03560944
0.03554822
0.03548475
0.03541909
0.03535130
0.03528141
0.03520946
0.03513549
0.03505952
0.03498157
0.03490169
0.03481993
0.03473632
0.03465095
0.03456389
0.03447524
0.03438511
0.03429364
0.03420097
0.03410729
0.03401278
0.03391768
0.03382221
0.03372665
0.03363129
0.03353643
0.03344243
0.03334963
0.03325842
0.03316920
0.03308240
0.03299846
0.03291782
0.03284096
0.03276834
0.03270046
0.03263779
0.03258079
0.03252995
0.03248572
0.03244851
0.03241875
0.03239679
0.03238298
0.03237760
0.03238089
0.03239302
0.03241410
0.03244419
0.03248324
0.03253114
0.03258769
0.03265262
0.03272553
0.03280598
0.03289340
0.03298714
0.03308647
0.03319057
0.03329853
0.03340938
0.03352207
0.03363552
0.03374855
0.03386000
0.03396864
0.03407326
0.03417261
0.03426551
0.03435076
0.03442723
0.03449384
0.03454959
0.03459356
0.03462494
0.03464301
0.03464720
0.03463706
0.03461226
0.03457265
0.03451819
0.03444902
0.03436539
0.03426774
0.03415661
0.03403269
0.03389679
0.03374982
0.03359280
0.03342682
0.03325306
0.03307272
0.03288708
0.03269739
0.03250493
0.03231098
0.03211677
0.03192350
0.03173232
0.03154430
0.03136046
0.03118172
0.03100895
0.03084288
0.03068420
0.03053349
0.03039123
0.03025784
0.03013365
0.03001892
0.02991385
0.02981858
0.02973322
0.02965784
0.02959246
0.02953713
0.02949187
0.02945675
0.02943185
0.02941731
0.02941335
0.02942029
0.02943858
0.02946886
0.02951193
0.02956885
0.00000000
0.00000000
0.03619792
0.03618553
0.03616752
0.03614438
0.03611659
0.03608456
0.03604868
0.03600928
0.03596666
0.03592105
0.03587268
0.03582173
0.03576834
0.03571261
0.03565465
0.03559451
0.03553224
0.03546786
0.03540139
0.03533283
0.03526220
0.03518948
0.03511468
0.03503781
0.03495887
0.03487790
0.03479491
0.03470996
0.03462312
0.03453445
0.03444406
0.03435206
0.03425860
0.03416383
0.03406794
0.03397114
0.03387365
0.03377575
0.03367771
0.03357984
0.03348249
0.03338600
0.03329078
0.03319722
0.03310576
0.03301685
0.03293097
0.03284859
0.03277020
0.03269632
0.03262744
0.03256407
0.03250670
0.03245582
0.03241190
0.03237536
0.03234662
0.03232605
0.03231397
0.03231065
0.03231631
0.03233108
0.03235506
0.03238822
0.03243051
0.03248173
0.03254164
0.03260989
0.03268602
0.03276950
0.03285970
0.03295589
0.03305726
0.03316291
0.03327187
0.03338308
0.03349545
0.03360781
0.03371897
0.03382768
0.03393272
0.03403282
0.03412677
0.03421334
0.03429137
0.03435977
0.03441748
0.03446357
0.03449719
0.03451760
0.03452418
0.03451646
0.03449410
0.03445689
0.03440481
0.03433795
0.03425658
0.03416109
0.03405204
0.03393011
0.03379610
0.03365094
0.03349565
0.03333133
0.03315917
0.03298039
0.03279627
0.03260810
0.03241716
0.03222475
0.03203210
0.03184044
0.03165091
0.03146461
0.03128254
0.03110564
0.03093475
0.03077062
0.03061389
0.03046514
0.03032484
0.03019337
0.03007103
0.02995807
0.02985466
0.02976090
0.02967688
0.02960265
0.02953824
0.02948366
0.02943897
0.02940424
0.02937957
0.02936515
0.02936125
0.02936824
0.02938663
0.02941706
0.02946037
0.02951754
0.00000000
0.00000000
0.03627424
0.03625538
0.03623182
0.03620400
0.03617232
0.03613712
0.03609873
0.03605741
0.03601339
0.03596688
0.03591802
0.03586694
0.03581372
0.03575843
0.03570111
0.03564176
0.03558040
0.03551700
0.03545154
0.03538399
0.03531432
0.03524249
0.03516849
0.03509228
0.03501386
0.03493321
0.03485037
0.03476533
0.03467816
0.03458891
0.03449766
0.03440452
0.03430959
0.03421305
0.03411505
0.03401579
0.03391551
0.03381445
0.03371290
0.03361117
0.03350958
0.03340852
0.03330837
0.03320955
0.03311251
0.03301772
0.03292566
0.03283684
0.03275178
0.03267101
0.03259506
0.03252448
0.03245978
0.03240149
0.03235010
0.03230611
0.03226995
0.03224203
0.03222271
0.03221231
0.03221108
0.03221919
0.03223677
0.03226383
0.03230035
0.03234616
0.03240105
0.03246468
0.03253663
0.03261638
0.03270331
0.03279670
0.03289575
0.03299956
0.03310716
0.03321749
0.03332945
0.03344185
0.03355348
0.03366309
0.03376941
0.03387117
0.03396710
0.03405596
0.03413656
0.03420775
0.03426846
0.03431770
0.03435459
0.03437835
0.03438834
0.03438403
0.03436505
0.03433119
0.03428236
0.03421865
0.03414030
0.03404770
0.03394139
0.03382203
0.03369044
0.03354754
0.03339434
0.03323198
0.03306164
0.03288457
0.03270205