# vtk DataFile Version 3.0
particle point data
ASCII
DATASET STRUCTURED_GRID
DIMENSIONS 143 143 2
POINTS 40898 double
0.00000000 0.00000000 0.00000000
0.00714286 0.00000000 0.00000000
0.01428571 0.00000000 0.00000000
0.02142857 0.00000000 0.00000000
0.02857143 0.00000000 0.00000000
0.03571429 0.00000000 0.00000000
0.04285714 0.00000000 0.00000000
0.05000000 0.00000000 0.00000000
0.05714286 0.00000000 0.00000000
0.06428571 0.00000000 0.00000000
0.07142857 0.00000000 0.00000000
0.07857143 0.00000000 0.00000000
0.08571429 0.00000000 0.00000000
0.09285714 0.00000000 0.00000000
0.10000000 0.00000000 0.00000000
0.10714286 0.00000000 0.00000000
0.11428571 0.00000000 0.00000000
0.12142857 0.00000000 0.00000000
0.12857143 0.00000000 0.00000000
0.13571429 0.00000000 0.00000000
0.14285714 0.00000000 0.00000000
0.15000000 0.00000000 0.00000000
0.15714286 0.00000000 0.00000000
0.16428571 0.00000000 0.00000000
0.17142857 0.00000000 0.00000000
0.17857143 0.00000000 0.00000000
0.18571429 0.00000000 0.00000000
0.19285714 0.00000000 0.00000000
0.20000000 0.00000000 0.00000000
0.20714286 0.00000000 0.00000000
0.21428571 0.00000000 0.00000000
0.22142857 0.00000000 0.00000000
0.22857143 0.00000000 0.00000000
0.23571429 0.00000000 0.00000000
0.24285714 0.00000000 0.00000000
0.25000000 0.00000000 0.00000000
0.25714286 0.00000000 0.00000000
0.26428571 0.00000000 0.00000000
0.27142857 0.00000000 0.00000000
0.27857143 0.00000000 0.00000000
0.28571429 0.00000000 0.00000000
0.29285714 0.00000000 0.00000000
0.30000000 0.00000000 0.00000000
0.30714286 0.00000000 0.00000000
0.31428571 0.00000000 0.00000000
0.32142857 0.00000000 0.00000000
0.32857143 0.00000000 0.00000000
0.33571429 0.00000000 0.00000000
0.34285714 0.00000000 0.00000000
0.35000000 0.00000000 0.00000000
0.35714286 0.00000000 0.00000000
0.36428571 0.00000000 0.00000000
0.37142857 0.00000000 0.00000000
0.37857143 0.00000000 0.00000000
0.38571429 0.00000000 0.00000000
0.39285714 0.00000000 0.00000000
0.40000000 0.00000000 0.00000000
0.40714286 0.00000000 0.00000000
0.41428571 0.00000000 0.00000000
0.42142857 0.00000000 0.00000000
0.42857143 0.00000000 0.00000000
0.43571429 0.00000000 0.00000000
0.44285714 0.00000000 0.00000000
0.45000000 0.00000000 0.00000000
0.45714286 0.00000000 0.00000000
0.46428571 0.00000000 0.00000000
0.47142857 0.00000000 0.00000000
0.47857143 0.00000000 0.00000000
0.48571429 0.00000000 0.00000000
0.49285714 0.00000000 0.00000000
0.50000000 0.00000000 0.00000000
0.50714286 0.00000000 0.00000000
0.51428571 0.00000000 0.00000000
0.52142857 0.00000000 0.00000000
0.52857143 0.00000000 0.00000000
0.53571429 0.00000000 0.00000000
0.54285714 0.00000000 0.00000000
0.55000000 0.00000000 0.00000000
0.55714286 0.00000000 0.00000000
0.56428571 0.00000000 0.00000000
0.57142857 0.00000000 0.00000000
0.57857143 0.00000000 0.00000000
0.58571429 0.00000000 0.00000000
0.59285714 0.00000000 0.00000000
0.60000000 0.00000000 0.00000000
0.60714286 0.00000000 0.00000000
0.61428571 0.00000000 0.00000000
0.62142857 0.00000000 0.00000000
0.62857143 0.00000000 0.00000000
0.63571429 0.00000000 0.00000000
0.64285714 0.00000000 0.00000000
0.65000000 0.00000000 0.00000000
0.65714286 0.00000000 0.00000000
0.66428571 0.00000000 0.00000000
0.67142857 0.00000000 0.00000000
0.67857143 0.00000000 0.00000000
0.68571429 0.00000000 0.00000000
0.69285714 0.00000000 0.00000000
0.70000000 0.00000000 0.00000000
0.70714286 0.00000000 0.00000000
0.71428571 0.00000000 0.00000000
0.72142857 0.00000000 0.00000000
0.72857143 0.00000000 0.00000000
0.73571429 0.00000000 0.00000000
0.74285714 0.00000000 0.00000000
0.75000000 0.00000000 0.00000000
0.75714286 0.00000000 0.00000000
0.76428571 0.00000000 0.00000000
0.77142857 0.00000000 0.00000000
0.77857143 0.00000000 0.00000000
0.78571429 0.00000000 0.00000000
0.79285714 0.00000000 0.00000000
0.80000000 0.00000000 0.00000000
0.80714286 0.00000000 0.00000000
0.81428571 0.00000000 0.00000000
0.82142857 0.00000000 0.00000000
0.82857143 0.00000000 0.00000000
0.83571429 0.00000000 0.00000000
0.84285714 0.00000000 0.00000000
0.85000000 0.00000000 0.00000000
0.85714286 0.00000000 0.00000000
0.86428571 0.00000000 0.00000000
0.87142857 0.00000000 0.00000000
0.87857143 0.00000000 0.00000000
0.88571429 0.00000000 0.00000000
0.89285714 0.00000000 0.00000000
0.90000000 0.00000000 0.00000000
0.90714286 0.00000000 0.00000000
0.91428571 0.00000000 0.00000000
0.92142857 0.00000000 0.00000000
0.92857143 0.00000000 0.00000000
0.93571429 0.00000000 0.00000000
0.94285714 0.00000000 0.00000000
0.95000000 0.00000000 0.00000000
0.95714286 0.00000000 0.00000000
0.96428571 0.00000000 0.00000000
0.97142857 0.00000000 0.00000000
0.97857143 0.00000000 0.00000000
0.98571429 0.00000000 0.00000000
0.99285714 0.00000000 0.00000000
1.00000000 0.00000000 0.00000000
1.00714286 0.00000000 0.00000000
1.01428571 0.00000000 0.00000000
0.00000000 0.00714286 0.00000000
0.00714286 0.00714286 0.00000000
0.01428571 0.00714286 0.00000000
0.02142857 0.00714286 0.00000000
0.02857143 0.00714286 0.00000000
0.03571429 0.00714286 0.00000000
0.04285714 0.00714286 0.00000000
0.05000000 0.00714286 0.00000000
0.05714286 0.00714286 0.00000000
0.06428571 0.00714286 0.00000000
0.07142857 0.00714286 0.00000000
0.07857143 0.00714286 0.00000000
0.08571429 0.00714286 0.00000000
0.09285714 0.00714286 0.00000000
0.10000000 0.00714286 0.00000000
0.10714286 0.00714286 0.00000000
0.11428571 0.00714286 0.00000000
0.12142857 0.00714286 0.00000000
0.12857143 0.00714286 0.00000000
0.13571429 0.00714286 0.00000000
0.14285714 0.00714286 0.00000000
0.15000000 0.00714286 0.00000000
0.15714286 0.00714286 0.00000000
0.16428571 0.00714286 0.00000000
0.17142857 0.00714286 0.00000000
0.17857143 0.00714286 0.00000000
0.18571429 0.00714286 0.00000000
0.19285714 0.00714286 0.00000000
0.20000000 0.00714286 0.00000000
0.20714286 0.00714286 0.00000000
0.21428571 0.00714286 0.00000000
0.22142857 0.00714286 0.00000000
0.22857143 0.00714286 0.00000000
0.23571429 0.00714286 0.00000000
0.24285714 0.00714286 0.00000000
0.25000000 0.00714286 0.00000000
0.25714286 0.00714286 0.00000000
0.26428571 0.00714286 0.00000000
0.27142857 0.00714286 0.00000000
0.27857143 0.00714286 0.00000000
0.28571429 0.00714286 0.00000000
0.29285714 0.00714286 0.00000000
0.30000000 0.00714286 0.00000000
0.30714286 0.00714286 0.00000000
0.31428571 0.00714286 0.00000000
0.32142857 0.00714286 0.00000000
0.32857143 0.00714286 0.00000000
0.33571429 0.00714286 0.00000000
0.34285714 0.00714286 0.00000000
0.35000000 0.00714286 0.00000000
0.35714286 0.00714286 0.00000000
0.36428571 0.00714286 0.00000000
0.37142857 0.00714286 0.00000000
0.37857143 0.00714286 0.00000000
0.38571429 0.00714286 0.00000000
0.39285714 0.00714286 0.00000000
0.40000000 0.00714286 0.00000000
0.40714286 0.00714286 0.00000000
0.41428571 0.00714286 0.00000000
0.42142857 0.00714286 0.00000000
0.42857143 0.00714286 0.00000000
0.43571429 0.00714286 0.00000000
0.44285714 0.00714286 0.00000000
0.45000000 0.00714286 0.00000000
0.45714286 0.00714286 0.00000000
0.46428571 0.00714286 0.00000000
0.47142857 0.00714286 0.00000000
0.47857143 0.00714286 0.00000000
0.48571429 0.00714286 0.00000000
0.49285714 0.00714286 0.00000000
0.50000000 0.00714286 0.00000000
0.50714286 0.00714286 0.00000000
0.51428571 0.00714286 0.00000000
0.52142857 0.00714286 0.00000000
0.52857143 0.00714286 0.00000000
0.53571429 0.00714286 0.00000000
0.54285714 0.00714286 0.00000000
0.55000000 0.00714286 0.00000000
0.55714286 0.00714286 0.00000000
0.56428571 0.00714286 0.00000000
0.57142857 0.00714286 0.00000000
0.57857143 0.00714286 0.00000000
0.58571429 0.00714286 0.00000000
0.59285714 0.00714286 0.00000000
0.60000000 0.00714286 0.00000000
0.60714286 0.00714286 0.00000000
0.61428571 0.00714286 0.00000000
0.62142857 0.00714286 0.00000000
0.62857143 0.00714286 0.00000000
0.63571429 0.00714286 0.00000000
0.64285714 0.00714286 0.00000000
0.65000000 0.00714286 0.00000000
0.65714286 0.00714286 0.00000000
0.66428571 0.00714286 0.00000000
0.67142857 0.00714286 0.00000000
0.67857143 0.00714286 0.00000000
0.68571429 0.00714286 0.00000000
0.69285714 0.00714286 0.00000000
0.70000000 0.00714286 0.00000000
0.70714286 0.00714286 0.00000000
0.71428571 0.00714286 0.00000000
0.72142857 0.00714286 0.00000000
0.72857143 0.00714286 0.00000000
0.73571429 0.00714286 0.00000000
0.74285714 0.00714286 0.00000000
0.75000000 0.00714286 0.00000000
0.75714286 0.00714286 0.00000000
0.76428571 0.00714286 0.00000000
0.77142857 0.00714286 0.00000000
0.77857143 0.00714286 0.00000000
0.78571429 0.00714286 0.00000000
0.79285714 0.00714286 0.00000000
0.80000000 0.00714286 0.00000000
0.80714286 0.00714286 0.00000000
0.81428571 0.00714286 0.00000000
0.82142857 0.00714286 0.00000000
0.82857143 0.00714286 0.00000000
0.83571429 0.00714286 0.00000000
0.84285714 0.00714286 0.00000000
0.85000000 0.00714286 0.00000000
0.85714286 0.00714286 0.00000000
0.86428571 0.00714286 0.00000000
0.87142857 0.00714286 0.00000000
0.87857143 0.00714286 0.00000000
0.88571429 0.00714286 0.00000000
0.89285714 0.00714286 0.00000000
0.90000000 0.00714286 0.00000000
0.90714286 0.00714286 0.00000000
0.91428571 0.00714286 0.00000000
0.92142857 0.00714286 0.00000000
0.92857143 0.00714286 0.00000000
0.93571429 0.00714286 0.00000000
0.94285714 0.00714286 0.00000000
0.95000000 0.00714286 0.00000000
0.95714286 0.00714286 0.00000000
0.96428571 0.00714286 0.00000000
0.97142857 0.00714286 0.00000000
0.97857143 0.00714286 0.00000000
0.98571429 0.00714286 0.00000000
0.99285714 0.00714286 0.00000000
1.00000000 0.00714286 0.00000000
1.00714286 0.00714286 0.00000000
1.01428571 0.00714286 0.00000000
0.00000000 0.01428571 0.00000000
0.00714286 0.01428571 0.00000000
0.01428571 0.01428571 0.00000000
0.02142857 0.01428571 0.00000000
0.02857143 0.01428571 0.00000000
0.03571429 0.01428571 0.00000000
0.04285714 0.01428571 0.00000000
0.05000000 0.01428571 0.00000000
0.05714286 0.01428571 0.00000000
0.06428571 0.01428571 0.00000000
0.07142857 0.01428571 0.00000000
0.07857143 0.01428571 0.00000000
0.08571429 0.01428571 0.00000000
[...]
CELL_DATA 20164
SCALARS pressure double 
 LOOKUP_TABLE default
0.00000000
0.00000000
0.00000000
0.00000000
0.00000000
0.00000000
0.00000000
0.00000000
0.00000000
0.00000000
0.00000000
0.00000000
0.00000000
0.00000000
0.00000000
0.00000000
0.00000000
0.00000000
0.00000000
0.00000000
0.00000000
0.00000000
0.00000000
0.00000000
0.00000000
0.00000000
0.00000000
0.00000000
0.00000000
0.00000000
0.00000000
0.00000000
0.00000000
0.00000000
0.00000000
0.00000000
0.00000000
0.00000000
0.00000000
0.00000000
0.00000000
0.00000000
0.00000000
0.00000000
0.00000000
0.00000000
0.00000000
0.00000000
0.00000000
0.00000000
0.00000000
0.00000000
0.00000000
0.00000000
0.00000000
0.00000000
0.00000000
0.00000000
0.00000000
0.00000000
0.00000000
0.00000000
0.00000000
0.00000000
0.00000000
0.00000000
0.00000000
0.00000000
0.00000000
0.00000000
0.00000000
0.00000000
0.00000000
0.00000000
0.00000000
0.00000000
0.00000000
0.00000000
0.00000000
0.00000000
0.00000000
0.00000000
0.00000000
0.00000000
0.00000000
0.00000000
0.00000000
0.00000000
0.00000000
0.00000000
0.00000000
0.00000000
0.00000000
0.00000000
0.00000000
0.00000000
0.00000000
0.00000000
0.00000000
0.00000000
0.00000000
0.00000000
0.00000000
0.00000000
0.00000000
0.00000000
0.00000000
0.00000000
0.00000000
0.00000000
0.00000000
0.00000000
0.00000000
0.00000000
0.00000000
0.00000000
0.00000000
0.00000000
0.00000000
0.00000000
0.00000000
0.00000000
0.00000000
0.00000000
0.00000000
0.00000000
0.00000000
0.00000000
0.00000000
0.00000000
0.00000000
0.00000000
0.00000000
0.00000000
0.00000000
0.00000000
0.00000000
0.00000000
0.00000000
0.00000000
0.00000000
0.00000000
0.00000000
0.03582403
0.03583138
0.03583514
0.03583074
0.03581646
0.03579206
0.03575806
0.03571526
0.03566461
0.03560704
0.03554342
0.03547455
0.03540113
0.03532376
0.03524295
0.03515913
0.03507264
0.03498379
0.03489281
0.03479988
0.03470518
0.03460883
0.03451097
0.03441169
0.03431113
0.03420939
0.03410660
0.03400291
0.03389848
0.03379348
0.03368813
0.03358265
0.03347729
0.03337233
0.03326807
0.03316485
0.03306302
0.03296296
0.03286508
0.03276978
0.03267753
0.03258878
0.03250400
0.03242369
0.03234833
0.03227844
0.03221452
0.03215707
0.03210659
0.03206356
0.03202845
0.03200172
0.03198377
0.03197501
0.03197577
0.03198638
0.03200708
0.03203808
0.03207951
0.03213146
0.03219391
0.03226680
0.03234997
0.03244316
0.03254606
0.03265823
0.03277916
0.03290824
0.03304476
0.03318793
0.03333687
0.03349060
0.03364809
0.03380819
0.03396973
0.03413145
0.03429205
0.03445021
0.03460456
0.03475373
0.03489635
0.03503106
0.03515654
0.03527149
0.03537470
0.03546502
0.03554137
0.03560280
0.03564846
0.03567761
0.03568967
0.03568419
0.03566085
0.03561953
0.03556021
0.03548308
0.03538844
0.03527678
0.03514871
0.03500500
0.03484654
0.03467433
0.03448951
0.03429327
0.03408692
0.03387181
0.03364934
0.03342097
0.03318813
0.03295230
0.03271492
0.03247741
0.03224118
0.03200754
0.03177779
0.03155316
0.03133478
0.03112374
0.03092105
0.03072762
0.03054431
0.03037190
0.03021110
0.03006256
0.02992686
0.02980453
0.02969602
0.02960175
0.02952204
0.02945716
0.02940722
0.02937223
0.02935193
0.02934576
0.02935266
0.02937083
0.02939738
0.02942782
0.02945538
0.02947085
0.00000000
0.00000000
0.03581669
0.03582404
0.03582577
0.03581991
0.03580540
0.03578201
0.03575002
0.03570999
0.03566264
0.03560873
0.03554899
0.03548410
0.03541469
0.03534131
0.03526443
0.03518445
0.03510172
0.03501652
0.03492908
0.03483962
0.03474829
0.03465524
0.03456062
0.03446453
0.03436710
0.03426847
0.03416875
0.03406810
0.03396668
0.03386467
0.03376227
0.03365970
0.03355720
0.03345504
0.03335352
0.03325295
0.03315367
0.03305605
0.03296046
0.03286731
0.03277703
0.03269006
0.03260684
0.03252785
0.03245357
0.03238446
0.03232102
0.03226372
0.03221305
0.03216946
0.03213340
0.03210532
0.03208560
0.03207464
0.03207275
0.03208025
0.03209738
0.03212434
0.03216125
0.03220821
0.03226521
0.03233218
0.03240897
0.03249536
0.03259102
0.03269557
0.03280850
0.03292923
0.03305710
0.03319134
0.03333111
0.03347549
0.03362347
0.03377398
0.03392588
0.03407797
0.03422901
0.03437773
0.03452282
0.03466297
0.03479687
0.03492322
0.03504075
0.03514823
0.03524449
0.03532842
0.03539902
0.03545536
0.03549662
0.03552212
0.03553129
0.03552370
0.03549907
0.03545725
0.03539827
0.03532228
0.03522959
0.03512067
0.03499611
0.03485663
0.03470311
0.03453651
0.03435789
0.03416843
0.03396937
0.03376199
0.03354765
0.03332772
0.03310360
0.03287668
0.03264835
0.03241996
0.03219285
0.03196828
0.03174750
0.03153165
0.03132184
0.03111910
0.03092437
0.03073855
0.03056242
0.03039674
0.03024216
0.03009929
0.02996865
0.02985071
0.02974589
0.02965450
0.02957681
0.02951298
0.02946304
0.02942685
0.02940408
0.02939404
0.02939564
0.02940716
0.02942610
0.02944889
0.02947084
0.02948632
0.00000000
0.00000000
0.03581295
0.03582232
0.03582400
0.03581772
0.03580323
0.03578056
0.03575000
0.03571203
0.03566723
0.03561624
0.03555969
0.03549817
0.03543223
0.03536236
0.03528900
0.03521252
0.03513324
0.03505144
0.03496735
0.03488116
0.03479305
0.03470317
0.03461165
0.03451861
0.03442419
0.03432852
0.03423171
0.03413393
0.03403534
0.03393610
0.03383641
0.03373649
0.03363657
0.03353691
0.03343779
0.03333951
0.03324240
0.03314681
0.03305310
0.03296166
0.03287289
0.03278723
0.03270509
0.03262693
0.03255321
0.03248438
0.03242092
0.03236328
0.03231193
0.03226732
0.03222987
0.03220002
0.03217815
0.03216462
0.03215978
0.03216391
0.03217726
0.03220002
0.03223234
0.03227429
0.03232589
0.03238708
0.03245772
0.03253760
0.03262643
0.03272382
0.03282931
0.03294236
0.03306231
0.03318845
0.03331997
0.03345597
0.03359550
0.03373753
0.03388095
0.03402463
0.03416735
0.03430790
0.03444502
0.03457744
0.03470389
0.03482312
0.03493390
0.03503505
0.03512544
0.03520399
0.03526974
0.03532179
0.03535935
0.03538176
0.03538848
0.03537909
0.03535331
0.03531103
0.03525225
0.03517713
0.03508598
0.03497924
0.03485750
0.03472147
0.03457197
0.03440995
0.03423645
0.03405259
0.03385957
0.03365864
0.03345110
0.03323828
0.03302153
0.03280218
0.03258157
0.03236102
0.03214177
0.03192508
0.03171211
0.03150397
0.03130172
0.03110632
0.03091869
0.03073966
0.03056998
0.03041036
0.03026139
0.03012364
0.02999759
0.02988365
0.02978216
0.02969341
0.02961758
0.02955476
0.02950495
0.02946794
0.02944337
0.02943059
0.02942862
0.02943604
0.02945093
0.02947080
0.02949276
0.02951389
0.00000000
0.00000000
0.03581752
0.03582829
0.03583017
0.03582371
0.03580922
0.03578698
0.03575738
0.03572089
0.03567802
0.03562933
0.03557536
0.03551665
0.03545367
0.03538687
0.03531665
0.03524333
0.03516722
0.03508857
0.03500761
0.03492451
0.03483945
0.03475257
0.03466400
0.03457386
0.03448229
0.03438941
0.03429535
0.03420025
0.03410426
0.03400756
0.03391034
0.03381280
0.03371516
0.03361768
0.03352062
0.03342427
0.03332895
0.03323498
0.03314271
0.03305253
0.03296481
0.03287997
0.03279842
0.03272059
0.03264692
0.03257787
0.03251388
0.03245540
0.03240288
0.03235676
0.03231747
0.03228542
0.03226099
0.03224454
0.03223642
0.03223690
0.03224625
0.03226465
0.03229226
0.03232917
0.03237541
0.03243092
0.03249559
0.03256924
0.03265157
0.03274225
0.03284083
0.03294679
0.03305952
0.03317832
0.03330242
0.03343096
0.03356302
0.03369760
0.03383364
0.03397002
0.03410560
0.03423916
0.03436950
0.03449538
0.03461557
0.03472884
0.03483401
0.03492990
0.03501543
0.03508956
0.03515132
0.03519984
0.03523437
0.03525425
0.03525895
0.03524806
0.03522133
0.03517863
0.03511997
0.03504552
0.03495557
0.03485055
0.03473105
0.03459776
0.03445149
0.03429316
0.03412379
0.03394448
0.03375639
0.03356074
0.03335881
0.03315189
0.03294127
0.03272827
0.03251418
0.03230026
0.03208774
0.03187780
0.03167158
0.03147014
0.03127449
0.03108555
0.03090419
0.03073119
0.03056727
0.03041307
0.03026916
0.03013604
0.03001414
0.02990382
0.02980539
0.02971907
0.02964500
0.02958325
0.02953375
0.02949632
0.02947063
0.02945614
0.02945205
0.02945735
0.02947070
0.02949060
0.02951551
0.02954433
0.00000000
0.00000000
0.03583233
0.03584315
0.03584466
0.03583774
0.03582294
0.03580077
0.03577167
0.03573612
0.03569463
0.03564769
0.03559579
0.03553939
0.03547893
0.03541479
0.03534733
0.03527685
0.03520362
0.03512787
0.03504980
0.03496959
0.03488739
0.03480333
0.03471754
0.03463014
0.03454124
0.03445096
0.03435944
0.03426680
0.03417320
0.03407880
0.03398377
0.03388831
0.03379264
0.03369700
0.03360163
0.03350683
0.03341288
0.03332010
0.03322883
0.03313943
0.03305228
0.03296776
0.03288628
0.03280826
0.03273412
0.03266431
0.03259926
0.03253941
0.03248521
0.03243709
0.03239547
0.03236076
0.03233335
0.03231360
0.03230184
0.03229838
0.03230347
0.03231732
0.03234009
0.03237189
0.03241276
0.03246267
0.03252152
0.03258915
0.03266531
0.03274966
0.03284179
0.03294121
0.03304733
0.03315949
0.03327694
0.03339886
0.03352435
0.03365244
0.03378210
0.03391224
0.03404174
0.03416942
0.03429410
0.03441456
0.03452959
0.03463799
0.03473859
0.03483025
0.03491189
0.03498248
0.03504108
0.03508683
0.03511898
0.03513688
0.03514001
0.03512798
0.03510052
0.03505750
0.03499896
0.03492504
0.03483604
0.03473239
0.03461467
0.03448354
0.03433983
0.03418443
0.03401835
0.03384268
0.03365855
0.03346717
0.03326980
0.03306768
0.03286211
0.03265436
0.03244568
0.03223732
0.03203047
0.03182627
0.03162582
0.03143014
0.03124021
0.03105690
0.03088104
0.03071337
0.03055455
0.03040519
0.03026580
0.03013684
0.03001869
0.02991168
0.02981606
0.02973200
0.02965963
0.02959898
0.02955000
0.02951254
0.02948632
0.02947094
0.02946586
0.02947041
0.02948381
0.02950531
0.02953433
0.02957085
0.00000000
0.00000000
0.03585783
0.03586730
0.03586759
0.03585961
0.03584405
0.03582148
0.03579241
0.03575733
0.03571672
0.03567104
0.03562073
0.03556620
0.03550783
0.03544597
0.03538093
0.03531298
0.03524235
0.03516924
0.03509384
0.03501630
0.03493674
0.03485531
0.03477210
0.03468722
0.03460079
0.03451291
0.03442370
0.03433329
0.03424181
0.03414942
0.03405629
0.03396260
0.03386855
0.03377437
0.03368031
0.03358663
0.03349361
0.03340156
0.03331081
0.03322170
0.03313458
0.03304985
0.03296790
0.03288913
0.03281396
0.03274282
0.03267615
0.03261438
0.03255796
0.03250730
0.03246284
0.03242499
0.03239414
0.03237066
0.03235489
0.03234714
0.03234769
0.03235676
0.03237452
0.03240110
0.03243656
0.03248090
0.03253404
0.03259583
0.03266606
0.03274442
0.03283051
0.03292387
0.03302395
0.03313010
0.03324160
0.03335766
0.03347740
0.03359987
0.03372408
0.03384894
0.03397336
0.03409618
0.03421623
0.03433230
0.03444321
0.03454777
0.03464481
0.03473320
0.03481187
0.03487979
0.03493604
0.03497975
0.03501017
0.03502667
0.03502871
0.03501592
0.03498801
0.03494487
0.03488652
0.03481310
0.03472492
0.03462240
0.03450611
0.03437672
0.03423504
0.03408196
0.03391849
0.03374569
0.03356471
0.03337674
0.03318301
0.03298477
0.03278328
0.03257981
0.03237559
0.03217182
0.03196969
0.03177031
0.03157474
0.03138397
0.03119894
0.03102049
0.03084941
0.03068640
0.03053207
0.03038699
0.03025163
0.03012640
0.03001164
0.02990762
0.02981457
0.02973264
0.02966191
0.02960242
0.02955413
0.02951693
0.02949063
0.02947499
0.02946968
0.02947435
0.02948865
0.02951238
0.02954559
0.02958887
0.00000000
0.00000000
0.03589374
0.03590062
0.03589878
0.03588906
0.03587217
0.03584870
0.03581919
0.03578411
0.03574393
0.03569906
0.03564991
0.03559684
0.03554019
0.03548026
0.03541731
0.03535158
0.03528327
0.03521254
0.03513956
0.03506445
0.03498732
0.03490829
0.03482744
0.03474486
0.03466066
0.03457494
0.03448778
0.03439932
0.03430967
0.03421898
0.03412740
0.03403512
0.03394231
0.03384920
0.03375601
0.03366299
0.03357043
0.03347861
0.03338785
0.03329848
0.03321085
0.03312533
0.03304231
0.03296219
0.03288539
0.03281232
0.03274343
0.03267914
0.03261990
0.03256614
0.03251829
0.03247677
0.03244198
0.03241430
0.03239410
0.03238169
0.03237737
0.03238138
0.03239391
0.03241512
0.03244509
0.03248383
0.03253131
0.03258739
0.03265189
0.03272452
0.03280492
0.03289264
0.03298717
0.03308787
0.03319405
0.03330494
0.03341968
0.03353734
0.03365694
0.03377741
0.03389767
0.03401658
0.03413295
0.03424562
0.03435339
0.03445507
0.03454949
0.03463554
0.03471214
0.03477825
0.03483294
0.03487536
0.03490474
0.03492044
0.03492193
0.03490882
0.03488083
0.03483784
0.03477985
0.03470702
0.03461964
0.03451815
0.03440309
0.03427515
0.03413512
0.03398392
0.03382253
0.03365202
0.03347353
0.03328826
0.03309742
0.03290227
0.03270406
0.03250403
0.03230342
0.03210341
0.03190517
0.03170977
0.03151828
0.03133164
0.03115077
0.03097648
0.03080951
0.03065053
0.03050013
0.03035880
0.03022700
0.03010508
0.02999335
0.02989204
0.02980134
0.02972138
0.02965223
0.02959391
0.02954642
0.02950970
0.02948364
0.02946813
0.02946305
0.02946828
0.02948382
0.02950982
0.02954672
0.02959543
0.00000000
0.00000000
0.03593944
0.03594267
0.03593783
0.03592568
0.03590688
0.03588201
0.03585158
0.03581606
0.03577588
0.03573142
0.03568304
0.03563106
0.03557577
0.03551744
0.03545627
0.03539246
0.03532619
0.03525758
0.03518676
0.03511383
0.03503889
0.03496200
0.03488326
0.03480274
0.03472050
0.03463664
0.03455125
0.03446442
0.03437627
0.03428692
0.03419653
0.03410524
0.03401325
0.03392075
0.03382795
0.03373511
0.03364247
0.03355033
0.03345899
0.03336876
0.03328001
0.03319308
0.03310836
0.03302625
0.03294715
0.03287150
0.03279973
0.03273227
0.03266958
0.03261209
0.03256025
0.03251448
0.03247521
0.03244283
0.03241772
0.03240022
0.03239066
0.03238928
0.03239632
0.03241196
0.03243629
0.03246937
0.03251117
0.03256161
0.03262052
0.03268763
0.03276262
0.03284506
0.03293445
0.03303020
0.03313162
0.03323795
0.03334836
0.03346194
0.03357770
0.03369461
0.03381156
0.03392743
0.03404105
0.03415123
0.03425678
0.03435651
0.03444925
0.03453386
0.03460926
0.03467441
0.03472837
0.03477026
0.03479932
0.03481488
0.03481642
0.03480351
0.03477588
0.03473341
0.03467608
0.03460405
0.03451760
0.03441716
0.03430329
0.03417667
0.03403810
0.03388848
0.03372881
0.03356017
0.03338369
0.03320057
0.03301204
0.03281935
0.03262374
0.03242647
0.03222875
0.03203178
0.03183669
0.03164456
0.03145643
0.03127323
0.03109585
0.03092506
0.03076159
0.03060607
0.03045904
0.03032098
0.03019228
0.03007328
0.02996423
0.02986534
0.02977676
0.02969861
0.02963093
0.02957377
0.02952713
0.02949099
0.02946535
0.02945018
0.02944552
0.02945145
0.02946819
0.02949614
0.02953596
0.02958868
0.00000000
0.00000000
0.03599409
0.03599280
0.03598419
0.03596895
0.03594768
0.03592091
0.03588912
0.03585274
0.03581216
0.03576773
0.03571977
0.03566854
0.03561429
0.03555723
0.03549755
0.03543538
0.03537086
0.03530410
0.03523518
0.03516416
0.03509113
0.03501613
0.03493922
0.03486045
0.03477987
0.03469757
0.03461359
0.03452804
0.03444101
0.03435261
0.03426297
0.03417224
0.03408059
0.03398819
0.03389526
0.03380203
0.03370874
0.03361567
0.03352312
0.03343140
0.03334085
0.03325183
0.03316471
0.03307990
0.03299781
0.03291886
0.03284350
0.03277217
0.03270533
0.03264343
0.03258694
0.03253630
0.03249194
0.03245429
0.03242375
0.03240069
0.03238544
0.03237830
0.03237953
0.03238932
0.03240782
0.03243510
0.03247117
0.03251597
0.03256936
0.03263110
0.03270089
0.03277834
0.03286295
0.03295415
0.03305129
0.03315362
0.03326031
0.03337046
0.03348309
0.03359718
0.03371162
0.03382528
0.03393700
0.03404557
0.03414980
0.03424848
0.03434044
0.03442451
0.03449961
0.03456467
0.03461873
0.03466091
0.03469041
0.03470656
0.03470881
0.03469673
0.03467003
0.03462855
0.03457230
0.03450141
0.03441616
0.03431698
0.03420442
0.03407915
0.03394200
0.03379385
0.03363572
0.03346869
0.03329390
0.03311256
0.03292591
0.03273519
0.03254168
0.03234660
0.03215120
0.03195666
0.03176411
0.03157463
0.03138924
0.03120886
0.03103435
0.03086649
0.03070595
0.03055334
0.03040918
0.03027391
0.03014789
0.03003141
0.02992470
0.02982794
0.02974124
0.02966470
0.02959837
0.02954229
0.02949647
0.02946094
0.02943574
0.02942096
0.02941673
0.02942328
0.02944097
0.02947035
0.02951220
0.02956756
0.00000000
0.00000000
0.03605679
0.03605022
0.03603719
0.03601827
0.03599401
0.03596487
0.03593130
0.03589367
0.03585234
0.03580760
0.03575972
0.03570893
0.03565541
0.03559934
0.03554084
0.03548003
0.03541699
0.03535179
0.03528448
0.03521510
0.03514369
0.03507027
0.03499488
0.03491753
0.03483828
0.03475717
0.03467424
0.03458957
0.03450323
0.03441532
0.03432596
0.03423528
0.03414343
0.03405058
0.03395693
0.03386269
0.03376811
0.03367346
0.03357901
0.03348508
0.03339201
0.03330015
0.03320988
0.03312160
0.03303574
0.03295271
0.03287299
0.03279702
0.03272528
0.03265824
0.03259638
0.03254016
0.03249006
0.03244652
0.03240996
0.03238078
0.03235936
0.03234602
0.03234105
0.03234467
0.03235707
0.03237836
0.03240856
0.03244765
0.03249552
0.03255197
0.03261671
0.03268937
0.03276948
0.03285650
0.03294977
0.03304856
0.03315206
0.03325938
0.03336953
0.03348149
0.03359416
0.03370640
0.03381703
0.03392484
0.03402862
0.03412714
0.03421922
0.03430366
0.03437936
0.03444523
0.03450029
0.03454362
0.03457441
0.03459196
0.03459569
0.03458516
0.03456005
0.03452020
0.03446559
0.03439633
0.03431271
0.03421514
0.03410416
0.03398047
0.03384487
0.03369826
0.03354166
0.03337616
0.03320293
0.03302316
0.03283812
0.03264906
0.03245726
0.03226398
0.03207044
0.03187785
0.03168734
0.03149999
0.03131680
0.03113870
0.03096654
0.03080106
0.03064294
0.03049275
0.03035098
0.03021805
0.03009428
0.02997994
0.02987522
0.02978028
0.02969520
0.02962006
0.02955490
0.02949976
0.02945466
0.02941966
0.02939485
0.02938037
0.02937644
0.02938337
0.02940163
0.02943182
0.02947478
0.02953153
0.00000000
0.00000000
0.03612658
0.03611411
0.03609607
0.03607295
0.03604522
0.03601330
0.03597756
0.03593834
0.03589593
0.03585056
0.03580247
0.03575182
0.03569875
0.03564338
0.03558580
0.03552606
0.03546421
0.03540029
0.03533430
0.03526624
0.03519613
0.03512397
0.03504974
0.03497347
0.03489516
0.03481483
0.03473252
0.03464827
0.03456215
0.03447423
0.03438461
0.03429342
0.03420078
0.03410686
0.03401184
0.03391592
0.03381935
0.03372237
0.03362527
0.03352836
0.03343197
0.03333646
0.03324221
0.03314963
0.03305914
0.03297120
0.03288627
0.03280483
0.03272736
0.03265437
0.03258635
0.03252381
0.03246723
0.03241710
0.03237386
0.03233797
0.03230981
0.03228976
0.03227814
0.03227520
0.03228117
0.03229618
0.03232031
0.03235356
0.03239585
0.03244700
0.03250675
0.03257476
0.03265058
0.03273368
0.03282343
0.03291910
0.03301988
0.03312489
0.03323316
0.03334364
0.03345523
0.03356679
0.03367712
0.03378499
0.03388917
0.03398843
0.03408154
0.03416729
0.03424453
0.03431216
0.03436916
0.03441458
0.03444758
0.03446743
0.03447353
0.03446539
0.03444269
0.03440522
0.03435295
0.03428599
0.03420459
0.03410915
0.03400023
0.03387851
0.03374477
0.03359995
0.03344506
0.03328121
0.03310955
0.03293132
0.03274779
0.03256023
0.03236994
0.03217817
0.03198619
0.03179520
0.03160633
0.03142068
0.03123926
0.03106298
0.03089269
0.03072913
0.03057295
0.03042471
0.03028489
0.03015386
0.03003194
0.02991935
0.02981628
0.02972283
0.02963909
0.02956510
0.02950089
0.02944650
0.02940196
0.02936734
0.02934276
0.02932840
0.02932453
0.02933152
0.02934986
0.02938023
0.02942343
0.02948044
0.00000000
0.00000000
0.03620249
0.03618357
0.03616001
0.03613223
0.03610063
0.03606555
0.03602731
0.03598617
0.03594238
0.03589611
0.03584753
0.03579675
0.03574386
0.03568892
0.03563198
0.03557303
0.03551209
0.03544914
0.03538415
0.03531710
0.03524795
0.03517668
0.03510324
0.03502763
0.03494983
0.03486984
0.03478767
0.03470334
0.03461691
0.03452841
0.03443795
0.03434562
0.03425154
0.03415586
0.03405875
0.03396041
0.03386107
0.03376097
0.03366039
0.03355965
0.03345907
0.03335902
0.03325989
0.03316209
0.03306608
0.03297230
0.03288125
0.03279342
0.03270934
0.03262951
0.03255448
0.03248478
0.03242093
0.03236343
0.03231280
0.03226950
0.03223398
0.03220663
0.03218782
0.03217785
0.03217698
0.03218537
0.03220315
0.03223034
0.03226688
0.03231266
0.03236742
0.03243084
0.03250250
0.03258189
0.03266837
0.03276126
0.03285973
0.03296291
0.03306982
0.03317941
0.03329059
0.03340217
0.03351296
0.03362171
0.03372717
0.03382805
0.03392312
0.03401114
0.03409091
0.03416131
0.03422127
0.03426981
0.03430605
0.03432922
0.03433868
0.03433391
0.03431456
0.03428039
0.03423134
0.03416750
0.03408909
0.03399651
0.03389029
0.03377111
0.03363977
0.03349717
0.03334436
0.03318243
0.03301257
0.03283603
0.03265408