# vtk DataFile Version 3.0
particle point data
ASCII
DATASET STRUCTURED_GRID
DIMENSIONS 143 143 2
POINTS 40898 double
0.00000000 0.00000000 0.00000000
0.00714286 0.00000000 0.00000000
0.01428571 0.00000000 0.00000000
0.02142857 0.00000000 0.00000000
0.02857143 0.00000000 0.00000000
0.03571429 0.00000000 0.00000000
0.04285714 0.00000000 0.00000000
0.05000000 0.00000000 0.00000000
0.05714286 0.00000000 0.00000000
0.06428571 0.00000000 0.00000000
0.07142857 0.00000000 0.00000000
0.07857143 0.00000000 0.00000000
0.08571429 0.00000000 0.00000000
0.09285714 0.00000000 0.00000000
0.10000000 0.00000000 0.00000000
0.10714286 0.00000000 0.00000000
0.11428571 0.00000000 0.00000000
0.12142857 0.00000000 0.00000000
0.12857143 0.00000000 0.00000000
0.13571429 0.00000000 0.00000000
0.14285714 0.00000000 0.00000000
0.15000000 0.00000000 0.00000000
0.15714286 0.00000000 0.00000000
0.16428571 0.00000000 0.00000000
0.17142857 0.00000000 0.00000000
0.17857143 0.00000000 0.00000000
0.18571429 0.00000000 0.00000000
0.19285714 0.00000000 0.00000000
0.20000000 0.00000000 0.00000000
0.20714286 0.00000000 0.00000000
0.21428571 0.00000000 0.00000000
0.22142857 0.00000000 0.00000000
0.22857143 0.00000000 0.00000000
0.23571429 0.00000000 0.00000000
0.24285714 0.00000000 0.00000000
0.25000000 0.00000000 0.00000000
0.25714286 0.00000000 0.00000000
0.26428571 0.00000000 0.00000000
0.27142857 0.00000000 0.00000000
0.27857143 0.00000000 0.00000000
0.28571429 0.00000000 0.00000000
0.29285714 0.00000000 0.00000000
0.30000000 0.00000000 0.00000000
0.30714286 0.00000000 0.00000000
0.31428571 0.00000000 0.00000000
0.32142857 0.00000000 0.00000000
0.32857143 0.00000000 0.00000000
0.33571429 0.00000000 0.00000000
0.34285714 0.00000000 0.00000000
0.35000000 0.00000000 0.00000000
0.35714286 0.00000000 0.00000000
0.36428571 0.00000000 0.00000000
0.37142857 0.00000000 0.00000000
0.37857143 0.00000000 0.00000000
0.38571429 0.00000000 0.00000000
0.39285714 0.00000000 0.00000000
0.40000000 0.00000000 0.00000000
0.40714286 0.00000000 0.00000000
0.41428571 0.00000000 0.00000000
0.42142857 0.00000000 0.00000000
0.42857143 0.00000000 0.00000000
0.43571429 0.00000000 0.00000000
0.44285714 0.00000000 0.00000000
0.45000000 0.00000000 0.00000000
0.45714286 0.00000000 0.00000000
0.46428571 0.00000000 0.00000000
0.47142857 0.00000000 0.00000000
0.47857143 0.00000000 0.00000000
0.48571429 0.00000000 0.00000000
0.49285714 0.00000000 0.00000000
0.50000000 0.00000000 0.00000000
0.50714286 0.00000000 0.00000000
0.51428571 0.00000000 0.00000000
0.52142857 0.00000000 0.00000000
0.52857143 0.00000000 0.00000000
0.53571429 0.00000000 0.00000000
0.54285714 0.00000000 0.00000000
0.55000000 0.00000000 0.00000000
0.55714286 0.00000000 0.00000000
0.56428571 0.00000000 0.00000000
0.57142857 0.00000000 0.00000000
0.57857143 0.00000000 0.00000000
0.58571429 0.00000000 0.00000000
0.59285714 0.00000000 0.00000000
0.60000000 0.00000000 0.00000000
0.60714286 0.00000000 0.00000000
0.61428571 0.00000000 0.00000000
0.62142857 0.00000000 0.00000000
0.62857143 0.00000000 0.00000000
0.63571429 0.00000000 0.00000000
0.64285714 0.00000000 0.00000000
0.65000000 0.00000000 0.00000000
0.65714286 0.00000000 0.00000000
0.66428571 0.00000000 0.00000000
0.67142857 0.00000000 0.00000000
0.67857143 0.00000000 0.00000000
0.68571429 0.00000000 0.00000000
0.69285714 0.00000000 0.00000000
0.70000000 0.00000000 0.00000000
0.70714286 0.00000000 0.00000000
0.71428571 0.00000000 0.00000000
0.72142857 0.00000000 0.00000000
0.72857143 0.00000000 0.00000000
0.73571429 0.00000000 0.00000000
0.74285714 0.00000000 0.00000000
0.75000000 0.00000000 0.00000000
0.75714286 0.00000000 0.00000000
0.76428571 0.00000000 0.00000000
0.77142857 0.00000000 0.00000000
0.77857143 0.00000000 0.00000000
0.78571429 0.00000000 0.00000000
0.79285714 0.00000000 0.00000000
0.80000000 0.00000000 0.00000000
0.80714286 0.00000000 0.00000000
0.81428571 0.00000000 0.00000000
0.82142857 0.00000000 0.00000000
0.82857143 0.00000000 0.00000000
0.83571429 0.00000000 0.00000000
0.84285714 0.00000000 0.00000000
0.85000000 0.00000000 0.00000000
0.85714286 0.00000000 0.00000000
0.86428571 0.00000000 0.00000000
0.87142857 0.00000000 0.00000000
0.87857143 0.00000000 0.00000000
0.88571429 0.00000000 0.00000000
0.89285714 0.00000000 0.00000000
0.90000000 0.00000000 0.00000000
0.90714286 0.00000000 0.00000000
0.91428571 0.00000000 0.00000000
0.92142857 0.00000000 0.00000000
0.92857143 0.00000000 0.00000000
0.93571429 0.00000000 0.00000000
0.94285714 0.00000000 0.00000000
0.95000000 0.00000000 0.00000000
0.95714286 0.00000000 0.00000000
0.96428571 0.00000000 0.00000000
0.97142857 0.00000000 0.00000000
0.97857143 0.00000000 0.00000000
0.98571429 0.00000000 0.00000000
0.99285714 0.00000000 0.00000000
1.00000000 0.00000000 0.00000000
1.00714286 0.00000000 0.00000000
1.01428571 0.00000000 0.00000000
0.00000000 0.00714286 0.00000000
0.00714286 0.00714286 0.00000000
0.01428571 0.00714286 0.00000000
0.02142857 0.00714286 0.00000000
0.02857143 0.00714286 0.00000000
0.03571429 0.00714286 0.00000000
0.04285714 0.00714286 0.00000000
0.05000000 0.00714286 0.00000000
0.05714286 0.00714286 0.00000000
0.06428571 0.00714286 0.00000000
0.07142857 0.00714286 0.00000000
0.07857143 0.00714286 0.00000000
0.08571429 0.00714286 0.00000000
0.09285714 0.00714286 0.00000000
0.10000000 0.00714286 0.00000000
0.10714286 0.00714286 0.00000000
0.11428571 0.00714286 0.00000000
0.12142857 0.00714286 0.00000000
0.12857143 0.00714286 0.00000000
0.13571429 0.00714286 0.00000000
0.14285714 0.00714286 0.00000000
0.15000000 0.00714286 0.00000000
0.15714286 0.00714286 0.00000000
0.16428571 0.00714286 0.00000000
0.17142857 0.00714286 0.00000000
0.17857143 0.00714286 0.00000000
0.18571429 0.00714286 0.00000000
0.19285714 0.00714286 0.00000000
0.20000000 0.00714286 0.00000000
0.20714286 0.00714286 0.00000000
0.21428571 0.00714286 0.00000000
0.22142857 0.00714286 0.00000000
0.22857143 0.00714286 0.00000000
0.23571429 0.00714286 0.00000000
0.24285714 0.00714286 0.00000000
0.25000000 0.00714286 0.00000000
0.25714286 0.00714286 0.00000000
0.26428571 0.00714286 0.00000000
0.27142857 0.00714286 0.00000000
0.27857143 0.00714286 0.00000000
0.28571429 0.00714286 0.00000000
0.29285714 0.00714286 0.00000000
0.30000000 0.00714286 0.00000000
0.30714286 0.00714286 0.00000000
0.31428571 0.00714286 0.00000000
0.32142857 0.00714286 0.00000000
0.32857143 0.00714286 0.00000000
0.33571429 0.00714286 0.00000000
0.34285714 0.00714286 0.00000000
0.35000000 0.00714286 0.00000000
0.35714286 0.00714286 0.00000000
0.36428571 0.00714286 0.00000000
0.37142857 0.00714286 0.00000000
0.37857143 0.00714286 0.00000000
0.38571429 0.00714286 0.00000000
0.39285714 0.00714286 0.00000000
0.40000000 0.00714286 0.00000000
0.40714286 0.00714286 0.00000000
0.41428571 0.00714286 0.00000000
0.42142857 0.00714286 0.00000000
0.42857143 0.00714286 0.00000000
0.43571429 0.00714286 0.00000000
0.44285714 0.00714286 0.00000000
0.45000000 0.00714286 0.00000000
0.45714286 0.00714286 0.00000000
0.46428571 0.00714286 0.00000000
0.47142857 0.00714286 0.00000000
0.47857143 0.00714286 0.00000000
0.48571429 0.00714286 0.00000000
0.49285714 0.00714286 0.00000000
0.50000000 0.00714286 0.00000000
0.50714286 0.00714286 0.00000000
0.51428571 0.00714286 0.00000000
0.52142857 0.00714286 0.00000000
0.52857143 0.00714286 0.00000000
0.53571429 0.00714286 0.00000000
0.54285714 0.00714286 0.00000000
0.55000000 0.00714286 0.00000000
0.55714286 0.00714286 0.00000000
0.56428571 0.00714286 0.00000000
0.57142857 0.00714286 0.00000000
0.57857143 0.00714286 0.00000000
0.58571429 0.00714286 0.00000000
0.59285714 0.00714286 0.00000000
0.60000000 0.00714286 0.00000000
0.60714286 0.00714286 0.00000000
0.61428571 0.00714286 0.00000000
0.62142857 0.00714286 0.00000000
0.62857143 0.00714286 0.00000000
0.63571429 0.00714286 0.00000000
0.64285714 0.00714286 0.00000000
0.65000000 0.00714286 0.00000000
0.65714286 0.00714286 0.00000000
0.66428571 0.00714286 0.00000000
0.67142857 0.00714286 0.00000000
0.67857143 0.00714286 0.00000000
0.68571429 0.00714286 0.00000000
0.69285714 0.00714286 0.00000000
0.70000000 0.00714286 0.00000000
0.70714286 0.00714286 0.00000000
0.71428571 0.00714286 0.00000000
0.72142857 0.00714286 0.00000000
0.72857143 0.00714286 0.00000000
0.73571429 0.00714286 0.00000000
0.74285714 0.00714286 0.00000000
0.75000000 0.00714286 0.00000000
0.75714286 0.00714286 0.00000000
0.76428571 0.00714286 0.00000000
0.77142857 0.00714286 0.00000000
0.77857143 0.00714286 0.00000000
0.78571429 0.00714286 0.00000000
0.79285714 0.00714286 0.00000000
0.80000000 0.00714286 0.00000000
0.80714286 0.00714286 0.00000000
0.81428571 0.00714286 0.00000000
0.82142857 0.00714286 0.00000000
0.82857143 0.00714286 0.00000000
0.83571429 0.00714286 0.00000000
0.84285714 0.00714286 0.00000000
0.85000000 0.00714286 0.00000000
0.85714286 0.00714286 0.00000000
0.86428571 0.00714286 0.00000000
0.87142857 0.00714286 0.00000000
0.87857143 0.00714286 0.00000000
0.88571429 0.00714286 0.00000000
0.89285714 0.00714286 0.00000000
0.90000000 0.00714286 0.00000000
0.90714286 0.00714286 0.00000000
0.91428571 0.00714286 0.00000000
0.92142857 0.00714286 0.00000000
0.92857143 0.00714286 0.00000000
0.93571429 0.00714286 0.00000000
0.94285714 0.00714286 0.00000000
0.95000000 0.00714286 0.00000000
0.95714286 0.00714286 0.00000000
0.96428571 0.00714286 0.00000000
0.97142857 0.00714286 0.00000000
0.97857143 0.00714286 0.00000000
0.98571429 0.00714286 0.00000000
0.99285714 0.00714286 0.00000000
1.00000000 0.00714286 0.00000000
1.00714286 0.00714286 0.00000000
1.01428571 0.00714286 0.00000000
0.00000000 0.01428571 0.00000000
0.00714286 0.01428571 0.00000000
0.01428571 0.01428571 0.00000000
0.02142857 0.01428571 0.00000000
0.02857143 0.01428571 0.00000000
0.03571429 0.01428571 0.00000000
0.04285714 0.01428571 0.00000000
0.05000000 0.01428571 0.00000000
0.05714286 0.01428571 0.00000000
0.06428571 0.01428571 0.00000000
0.07142857 0.01428571 0.00000000
0.07857143 0.01428571 0.00000000
0.08571429 0.01428571 0.00000000
[...]
CELL_DATA 20164
SCALARS pressure double 
 LOOKUP_TABLE default
0.00000000
0.00000000
0.00000000
0.00000000
0.00000000
0.00000000
0.00000000
0.00000000
0.00000000
0.00000000
0.00000000
0.00000000
0.00000000
0.00000000
0.00000000
0.00000000
0.00000000
0.00000000
0.00000000
0.00000000
0.00000000
0.00000000
0.00000000
0.00000000
0.00000000
0.00000000
0.00000000
0.00000000
0.00000000
0.00000000
0.00000000
0.00000000
0.00000000
0.00000000
0.00000000
0.00000000
0.00000000
0.00000000
0.00000000
0.00000000
0.00000000
0.00000000
0.00000000
0.00000000
0.00000000
0.00000000
0.00000000
0.00000000
0.00000000
0.00000000
0.00000000
0.00000000
0.00000000
0.00000000
0.00000000
0.00000000
0.00000000
0.00000000
0.00000000
0.00000000
0.00000000
0.00000000
0.00000000
0.00000000
0.00000000
0.00000000
0.00000000
0.00000000
0.00000000
0.00000000
0.00000000
0.00000000
0.00000000
0.00000000
0.00000000
0.00000000
0.00000000
0.00000000
0.00000000
0.00000000
0.00000000
0.00000000
0.00000000
0.00000000
0.00000000
0.00000000
0.00000000
0.00000000
0.00000000
0.00000000
0.00000000
0.00000000
0.00000000
0.00000000
0.00000000
0.00000000
0.00000000
0.00000000
0.00000000
0.00000000
0.00000000
0.00000000
0.00000000
0.00000000
0.00000000
0.00000000
0.00000000
0.00000000
0.00000000
0.00000000
0.00000000
0.00000000
0.00000000
0.00000000
0.00000000
0.00000000
0.00000000
0.00000000
0.00000000
0.00000000
0.00000000
0.00000000
0.00000000
0.00000000
0.00000000
0.00000000
0.00000000
0.00000000
0.00000000
0.00000000
0.00000000
0.00000000
0.00000000
0.00000000
0.00000000
0.00000000
0.00000000
0.00000000
0.00000000
0.00000000
0.00000000
0.00000000
0.00000000
0.03589393
0.03590134
0.03590517
0.03590083
0.03588656
0.03586212
0.03582801
0.03578505
0.03573418
0.03567634
0.03561240
0.03554316
0.03546932
0.03539149
0.03531018
0.03522582
0.03513877
0.03504933
0.03495772
0.03486414
0.03476876
0.03467172
0.03457313
0.03447311
0.03437178
0.03426925
0.03416566
0.03406115
0.03395588
0.03385003
0.03374381
0.03363745
0.03353120
0.03342534
0.03332017
0.03321603
0.03311329
0.03301231
0.03291350
0.03281729
0.03272413
0.03263448
0.03254883
0.03246765
0.03239146
0.03232075
0.03225604
0.03219784
0.03214664
0.03210294
0.03206721
0.03203989
0.03202142
0.03201219
0.03201255
0.03202281
0.03204324
0.03207403
0.03211533
0.03216722
0.03222969
0.03230267
0.03238601
0.03247945
0.03258266
0.03269523
0.03281663
0.03294625
0.03308338
0.03322722
0.03337689
0.03353141
0.03368973
0.03385071
0.03401316
0.03417582
0.03433739
0.03449653
0.03465187
0.03480202
0.03494561
0.03508128
0.03520768
0.03532353
0.03542759
0.03551870
0.03559579
0.03565790
0.03570416
0.03573385
0.03574636
0.03574124
0.03571819
0.03567705
0.03561783
0.03554070
0.03544599
0.03533415
0.03520583
0.03506178
0.03490290
0.03473021
0.03454482
0.03434797
0.03414094
0.03392510
0.03370187
0.03347269
0.03323902
0.03300234
0.03276410
0.03252573
0.03228862
0.03205412
0.03182353
0.03159806
0.03137888
0.03116706
0.03096362
0.03076948
0.03058550
0.03041246
0.03025107
0.03010199
0.02996579
0.02984301
0.02973410
0.02963948
0.02955948
0.02949434
0.02944422
0.02940908
0.02938868
0.02938247
0.02938937
0.02940758
0.02943421
0.02946473
0.02949238
0.02950791
0.00000000
0.00000000
0.03588652
0.03589393
0.03589572
0.03588989
0.03587538
0.03585194
0.03581983
0.03577965
0.03573209
0.03567791
0.03561786
0.03555262
0.03548281
0.03540899
0.03533164
0.03525115
0.03516787
0.03508209
0.03499406
0.03490396
0.03481198
0.03471826
0.03462293
0.03452612
0.03442795
0.03432855
0.03422806
0.03412661
0.03402437
0.03392153
0.03381828
0.03371484
0.03361147
0.03350843
0.03340602
0.03330455
0.03320437
0.03310584
0.03300935
0.03291531
0.03282414
0.03273628
0.03265220
0.03257236
0.03249724
0.03242732
0.03236310
0.03230506
0.03225367
0.03220941
0.03217273
0.03214406
0.03212381
0.03211237
0.03211007
0.03211722
0.03213405
0.03216079
0.03219755
0.03224443
0.03230141
0.03236845
0.03244538
0.03253198
0.03262793
0.03273284
0.03284620
0.03296743
0.03309586
0.03323073
0.03337119
0.03351631
0.03366508
0.03381642
0.03396919
0.03412217
0.03427413
0.03442379
0.03456982
0.03471091
0.03484574
0.03497300
0.03509142
0.03519975
0.03529682
0.03538153
0.03545283
0.03550982
0.03555167
0.03557768
0.03558728
0.03558005
0.03555568
0.03551405
0.03545517
0.03537919
0.03528642
0.03517734
0.03505253
0.03491274
0.03475882
0.03459175
0.03441260
0.03422255
0.03402284
0.03381477
0.03359970
0.03337900
0.03315409
0.03292636
0.03269720
0.03246798
0.03224004
0.03201465
0.03179305
0.03157641
0.03136583
0.03116234
0.03096690
0.03078039
0.03060363
0.03043734
0.03028220
0.03013880
0.03000769
0.02988932
0.02978411
0.02969239
0.02961441
0.02955034
0.02950020
0.02946387
0.02944100
0.02943090
0.02943249
0.02944403
0.02946302
0.02948588
0.02950790
0.02952343
0.00000000
0.00000000
0.03588271
0.03589216
0.03589389
0.03588763
0.03587313
0.03585040
0.03581973
0.03578160
0.03573660
0.03568536
0.03562851
0.03556664
0.03550032
0.03543003
0.03535621
0.03527924
0.03519944
0.03511709
0.03503242
0.03494562
0.03485688
0.03476634
0.03467414
0.03458041
0.03448526
0.03438884
0.03429128
0.03419272
0.03409333
0.03399327
0.03389275
0.03379199
0.03369121
0.03359069
0.03349069
0.03339154
0.03329354
0.03319706
0.03310246
0.03301013
0.03292049
0.03283395
0.03275095
0.03267195
0.03259740
0.03252777
0.03246353
0.03240514
0.03235308
0.03230779
0.03226971
0.03223927
0.03221685
0.03220284
0.03219757
0.03220133
0.03221437
0.03223689
0.03226903
0.03231088
0.03236244
0.03242366
0.03249441
0.03257448
0.03266356
0.03276128
0.03286717
0.03298068
0.03310116
0.03322789
0.03336005
0.03349676
0.03363704
0.03377985
0.03392410
0.03406863
0.03421224
0.03435369
0.03449171
0.03462503
0.03475237
0.03487248
0.03498412
0.03508609
0.03517727
0.03525656
0.03532300
0.03537567
0.03541380
0.03543671
0.03544384
0.03543480
0.03540929
0.03536718
0.03530850
0.03523339
0.03514217
0.03503528
0.03491331
0.03477697
0.03462709
0.03446462
0.03429061
0.03410618
0.03391253
0.03371094
0.03350269
0.03328914
0.03307162
0.03285150
0.03263010
0.03240874
0.03218870
0.03197122
0.03175746
0.03154856
0.03134557
0.03114946
0.03096114
0.03078146
0.03061116
0.03045096
0.03030145
0.03016320
0.03003669
0.02992234
0.02982048
0.02973140
0.02965529
0.02959225
0.02954224
0.02950509
0.02948041
0.02946757
0.02946557
0.02947300
0.02948793
0.02950786
0.02952989
0.02955109
0.00000000
0.00000000
0.03588723
0.03589810
0.03590004
0.03589361
0.03587909
0.03585679
0.03582708
0.03579043
0.03574736
0.03569842
0.03564417
0.03558512
0.03552178
0.03545457
0.03538390
0.03531011
0.03523350
0.03515432
0.03507279
0.03498911
0.03490344
0.03481592
0.03472669
0.03463587
0.03454360
0.03445000
0.03435519
0.03425933
0.03416256
0.03406507
0.03396704
0.03386867
0.03377019
0.03367186
0.03357394
0.03347672
0.03338052
0.03328567
0.03319253
0.03310147
0.03301288
0.03292717
0.03284476
0.03276609
0.03269160
0.03262174
0.03255697
0.03249774
0.03244450
0.03239770
0.03235776
0.03232511
0.03230012
0.03228318
0.03227461
0.03227470
0.03228372
0.03230186
0.03232927
0.03236605
0.03241222
0.03246774
0.03253249
0.03260628
0.03268884
0.03277982
0.03287876
0.03298515
0.03309836
0.03321772
0.03334243
0.03347164
0.03360441
0.03373975
0.03387658
0.03401379
0.03415021
0.03428464
0.03441585
0.03454261
0.03466366
0.03477779
0.03488378
0.03498048
0.03506678
0.03514162
0.03520405
0.03525319
0.03528827
0.03530863
0.03531374
0.03530319
0.03527672
0.03523420
0.03517564
0.03510120
0.03501118
0.03490602
0.03478630
0.03465271
0.03450607
0.03434731
0.03417744
0.03399757
0.03380888
0.03361259
0.03340998
0.03320234
0.03299099
0.03277723
0.03256237
0.03234768
0.03213439
0.03192369
0.03171672
0.03151454
0.03131818
0.03112855
0.03094653
0.03077291
0.03060839
0.03045364
0.03030920
0.03017560
0.03005326
0.02994255
0.02984377
0.02975713
0.02968279
0.02962081
0.02957112
0.02953355
0.02950775
0.02949319
0.02948908
0.02949438
0.02950776
0.02952771
0.02955271
0.02958163
0.00000000
0.00000000
0.03590202
0.03591296
0.03591455
0.03590764
0.03589283
0.03587059
0.03584138
0.03580568
0.03576399
0.03571681
0.03566462
0.03560790
0.03554708
0.03548255
0.03541466
0.03534372
0.03527001
0.03519374
0.03511513
0.03503435
0.03495156
0.03486688
0.03478045
0.03469238
0.03460280
0.03451182
0.03441957
0.03432619
0.03423183
0.03413664
0.03404082
0.03394455
0.03384806
0.03375157
0.03365536
0.03355969
0.03346488
0.03337123
0.03327909
0.03318882
0.03310079
0.03301541
0.03293307
0.03285421
0.03277924
0.03270862
0.03264278
0.03258218
0.03252725
0.03247843
0.03243615
0.03240083
0.03237284
0.03235257
0.03234035
0.03233647
0.03234121
0.03235476
0.03237731
0.03240895
0.03244973
0.03249961
0.03255852
0.03262627
0.03270261
0.03278723
0.03287969
0.03297950
0.03308609
0.03319877
0.03331680
0.03343936
0.03356553
0.03369435
0.03382477
0.03395571
0.03408603
0.03421455
0.03434007
0.03446138
0.03457726
0.03468650
0.03478791
0.03488036
0.03496275
0.03503405
0.03509330
0.03513966
0.03517235
0.03519073
0.03519426
0.03518256
0.03515536
0.03511253
0.03505408
0.03498018
0.03489112
0.03478733
0.03466939
0.03453798
0.03439390
0.03423809
0.03407152
0.03389531
0.03371059
0.03351859
0.03332055
0.03311774
0.03291145
0.03270296
0.03249355
0.03228444
0.03207684
0.03187190
0.03167072
0.03147433
0.03128371
0.03109973
0.03092324
0.03075496
0.03059557
0.03044567
0.03030578
0.03017636
0.03005779
0.02995040
0.02985443
0.02977008
0.02969745
0.02963658
0.02958741
0.02954980
0.02952348
0.02950803
0.02950292
0.02950747
0.02952091
0.02954246
0.02957158
0.02960822
0.00000000
0.00000000
0.03592756
0.03593717
0.03593753
0.03592958
0.03591400
0.03589136
0.03586218
0.03582695
0.03578614
0.03574022
0.03568963
0.03563479
0.03557607
0.03551383
0.03544838
0.03537998
0.03530887
0.03523527
0.03515934
0.03508124
0.03500111
0.03491908
0.03483524
0.03474972
0.03466262
0.03457406
0.03448414
0.03439300
0.03430077
0.03420761
0.03411370
0.03401920
0.03392434
0.03382934
0.03373444
0.03363990
0.03354603
0.03345311
0.03336149
0.03327150
0.03318352
0.03309792
0.03301510
0.03293548
0.03285948
0.03278752
0.03272005
0.03265751
0.03260034
0.03254897
0.03250384
0.03246535
0.03243390
0.03240988
0.03239361
0.03238543
0.03238559
0.03239434
0.03241185
0.03243824
0.03247358
0.03251786
0.03257102
0.03263290
0.03270329
0.03278187
0.03286826
0.03296199
0.03306250
0.03316914
0.03328120
0.03339787
0.03351827
0.03364145
0.03376639
0.03389203
0.03401725
0.03414089
0.03426177
0.03437868
0.03449042
0.03459580
0.03469364
0.03478281
0.03486221
0.03493084
0.03498774
0.03503205
0.03506301
0.03507998
0.03508244
0.03506997
0.03504233
0.03499937
0.03494112
0.03486772
0.03477949
0.03467683
0.03456033
0.03443066
0.03428863
0.03413514
0.03397120
0.03379788
0.03361633
0.03342774
0.03323336
0.03303444
0.03283225
0.03262806
0.03242311
0.03221862
0.03201576
0.03181566
0.03161938
0.03142792
0.03124222
0.03106313
0.03089143
0.03072783
0.03057296
0.03042736
0.03029151
0.03016584
0.03005067
0.02994629
0.02985291
0.02977068
0.02969971
0.02964000
0.02959153
0.02955419
0.02952779
0.02951208
0.02950674
0.02951141
0.02952575
0.02954954
0.02958286
0.02962628
0.00000000
0.00000000
0.03596359
0.03597060
0.03596883
0.03595914
0.03594222
0.03591869
0.03588906
0.03585383
0.03581344
0.03576834
0.03571892
0.03566554
0.03560855
0.03554825
0.03548490
0.03541873
0.03534996
0.03527875
0.03520525
0.03512960
0.03505192
0.03497230
0.03489084
0.03480763
0.03472278
0.03463638
0.03454853
0.03445935
0.03436897
0.03427752
0.03418517
0.03409209
0.03399848
0.03390454
0.03381052
0.03371666
0.03362323
0.03353055
0.03343891
0.03334866
0.03326016
0.03317377
0.03308988
0.03300890
0.03293124
0.03285734
0.03278763
0.03272255
0.03266254
0.03260805
0.03255950
0.03251731
0.03248190
0.03245366
0.03243293
0.03242005
0.03241532
0.03241897
0.03243122
0.03245221
0.03248202
0.03252068
0.03256814
0.03262428
0.03268890
0.03276173
0.03284240
0.03293047
0.03302539
0.03312656
0.03323327
0.03334475
0.03346012
0.03357847
0.03369879
0.03382002
0.03394107
0.03406078
0.03417797
0.03429147
0.03440006
0.03450255
0.03459777
0.03468460
0.03476193
0.03482874
0.03488409
0.03492710
0.03495703
0.03497321
0.03497511
0.03496233
0.03493461
0.03489180
0.03483392
0.03476112
0.03467370
0.03457208
0.03445682
0.03432861
0.03418824
0.03403664
0.03387478
0.03370376
0.03352472
0.03333884
0.03314737
0.03295155
0.03275265
0.03255192
0.03235060
0.03214988
0.03195092
0.03175482
0.03156264
0.03137533
0.03119381
0.03101889
0.03085132
0.03069178
0.03054084
0.03039901
0.03026674
0.03014440
0.03003227
0.02993061
0.02983960
0.02975936
0.02968996
0.02963144
0.02958378
0.02954692
0.02952076
0.02950519
0.02950007
0.02950530
0.02952088
0.02954695
0.02958397
0.02963283
0.00000000
0.00000000
0.03600945
0.03601282
0.03600805
0.03599591
0.03597708
0.03595214
0.03592159
0.03588591
0.03584553
0.03580084
0.03575219
0.03569991
0.03564429
0.03558558
0.03552402
0.03545980
0.03539307
0.03532399
0.03525267
0.03517922
0.03510372
0.03502627
0.03494693
0.03486579
0.03478291
0.03469839
0.03461231
0.03452478
0.03443590
0.03434581
0.03425465
0.03416258
0.03406978
0.03397646
0.03388283
0.03378913
0.03369564
0.03360262
0.03351040
0.03341929
0.03332965
0.03324183
0.03315623
0.03307323
0.03299327
0.03291677
0.03284415
0.03277588
0.03271239
0.03265414
0.03260156
0.03255510
0.03251518
0.03248220
0.03245653
0.03243853
0.03242851
0.03242675
0.03243347
0.03244884
0.03247298
0.03250594
0.03254770
0.03259817
0.03265717
0.03272445
0.03279968
0.03288243
0.03297220
0.03306839
0.03317032
0.03327722
0.03338825
0.03350249
0.03361896
0.03373661
0.03385434
0.03397101
0.03408544
0.03419644
0.03430281
0.03440335
0.03449689
0.03458228
0.03465842
0.03472428
0.03477889
0.03482139
0.03485100
0.03486705
0.03486900
0.03485644
0.03482909
0.03478681
0.03472960
0.03465761
0.03457113
0.03447058
0.03435652
0.03422964
0.03409074
0.03394073
0.03378061
0.03361147
0.03343444
0.03325073
0.03306158
0.03286823
0.03267195
0.03247398
0.03227557
0.03207789
0.03188211
0.03168929
0.03150049
0.03131663
0.03113861
0.03096721
0.03080316
0.03064709
0.03049954
0.03036100
0.03023185
0.03011243
0.03000301
0.02990378
0.02981490
0.02973647
0.02966856
0.02961121
0.02956440
0.02952813
0.02950239
0.02948716
0.02948246
0.02948840
0.02950518
0.02953321
0.02957315
0.02962603
0.00000000
0.00000000
0.03606434
0.03606317
0.03605462
0.03603940
0.03601808
0.03599123
0.03595931
0.03592277
0.03588200
0.03583733
0.03578910
0.03573757
0.03568299
0.03562557
0.03556550
0.03550292
0.03543796
0.03537074
0.03530132
0.03522980
0.03515623
0.03508067
0.03500317
0.03492379
0.03484259
0.03475963
0.03467498
0.03458873
0.03450098
0.03441184
0.03432144
0.03422992
0.03413746
0.03404424
0.03395047
0.03385638
0.03376223
0.03366828
0.03357483
0.03348221
0.03339076
0.03330083
0.03321281
0.03312709
0.03304411
0.03296427
0.03288804
0.03281586
0.03274820
0.03268550
0.03262824
0.03257687
0.03253182
0.03249353
0.03246239
0.03243879
0.03242305
0.03241549
0.03241635
0.03242585
0.03244412
0.03247124
0.03250723
0.03255202
0.03260547
0.03266735
0.03273736
0.03281509
0.03290005
0.03299168
0.03308930
0.03319218
0.03329947
0.03341027
0.03352361
0.03363843
0.03375364
0.03386810
0.03398062
0.03409002
0.03419507
0.03429457
0.03438733
0.03447219
0.03454803
0.03461381
0.03466855
0.03471134
0.03474141
0.03475806
0.03476075
0.03474903
0.03472262
0.03468136
0.03462524
0.03455441
0.03446914
0.03436985
0.03425711
0.03413161
0.03399414
0.03384561
0.03368705
0.03351952
0.03334420
0.03316228
0.03297502
0.03278366
0.03258948
0.03239373
0.03219764
0.03200241
0.03180918
0.03161903
0.03143297
0.03125195
0.03107682
0.03090836
0.03074725
0.03059411
0.03044945
0.03031371
0.03018725
0.03007037
0.02996330
0.02986621
0.02977922
0.02970242
0.02963587
0.02957959
0.02953361
0.02949796
0.02947267
0.02945782
0.02945356
0.02946012
0.02947785
0.02950731
0.02954927
0.02960480
0.00000000
0.00000000
0.03612734
0.03612088
0.03610789
0.03608897
0.03606465
0.03603543
0.03600172
0.03596393
0.03592239
0.03587741
0.03582926
0.03577817
0.03572433
0.03566790
0.03560903
0.03554781
0.03548434
0.03541868
0.03535089
0.03528101
0.03520906
0.03513509
0.03505912
0.03498118
0.03490130
0.03481954
0.03473594
0.03465057
0.03456352
0.03447487
0.03438475
0.03429328
0.03420061
0.03410694
0.03401244
0.03391733
0.03382187
0.03372632
0.03363096
0.03353611
0.03344211
0.03334932
0.03325811
0.03316890
0.03308211
0.03299816
0.03291753
0.03284068
0.03276807
0.03270019
0.03263752
0.03258053
0.03252970
0.03248546
0.03244826
0.03241850
0.03239655
0.03238274
0.03237736
0.03238065
0.03239278
0.03241387
0.03244395
0.03248300
0.03253090
0.03258746
0.03265238
0.03272530
0.03280574
0.03289316
0.03298690
0.03308622
0.03319032
0.03329827
0.03340912
0.03352181
0.03363525
0.03374829
0.03385973
0.03396837
0.03407298
0.03417233
0.03426522
0.03435046
0.03442693
0.03449354
0.03454928
0.03459325
0.03462462
0.03464270
0.03464689
0.03463674
0.03461194
0.03457233
0.03451787
0.03444869
0.03436507
0.03426742
0.03415629
0.03403237
0.03389647
0.03374950
0.03359248
0.03342651
0.03325275
0.03307242
0.03288678
0.03269709
0.03250464
0.03231070
0.03211649
0.03192322
0.03173204
0.03154402
0.03136019
0.03118146
0.03100868
0.03084262
0.03068395
0.03053324
0.03039098
0.03025759
0.03013340
0.03001867
0.02991361
0.02981835
0.02973299
0.02965760
0.02959222
0.02953689
0.02949164
0.02945652
0.02943162
0.02941708
0.02941312
0.02942006
0.02943835
0.02946862
0.02951170
0.02956861
0.00000000
0.00000000
0.03619749
0.03618510
0.03616708
0.03614395
0.03611615
0.03608413
0.03604825
0.03600885
0.03596623
0.03592062
0.03587226
0.03582131
0.03576791
0.03571219
0.03565423
0.03559409
0.03553182
0.03546744
0.03540098
0.03533243
0.03526179
0.03518908
0.03511429
0.03503742
0.03495848
0.03487751
0.03479453
0.03470958
0.03462274
0.03453408
0.03444369
0.03435170
0.03425824
0.03416348
0.03406759
0.03397079
0.03387332
0.03377542
0.03367738
0.03357952
0.03348217
0.03338569
0.03329047
0.03319692
0.03310547
0.03301656
0.03293068
0.03284831
0.03276993
0.03269605
0.03262717
0.03256381
0.03250645
0.03245557
0.03241165
0.03237512
0.03234638
0.03232582
0.03231374
0.03231042
0.03231608
0.03233085
0.03235483
0.03238800
0.03243028
0.03248150
0.03254141
0.03260966
0.03268579
0.03276927
0.03285947
0.03295565
0.03305702
0.03316267
0.03327162
0.03338283
0.03349519
0.03360755
0.03371870
0.03382741
0.03393244
0.03403255
0.03412648
0.03421305
0.03429108
0.03435947
0.03441718
0.03446327
0.03449688
0.03451729
0.03452387
0.03451615
0.03449378
0.03445658
0.03440449
0.03433763
0.03425626
0.03416077
0.03405172
0.03392979
0.03379579
0.03365063
0.03349534
0.03333103
0.03315887
0.03298009
0.03279598
0.03260780
0.03241687
0.03222446
0.03203182
0.03184016
0.03165064
0.03146434
0.03128228
0.03110538
0.03093449
0.03077036
0.03061364
0.03046489
0.03032459
0.03019312
0.03007079
0.02995783
0.02985442
0.02976066
0.02967665
0.02960242
0.02953800
0.02948343
0.02943874
0.02940401
0.02937934
0.02936492
0.02936102
0.02936801
0.02938640
0.02941683
0.02946014
0.02951731
0.00000000
0.00000000
0.03627381
0.03625494
0.03623139
0.03620357
0.03617189
0.03613669
0.03609830
0.03605698
0.03601296
0.03596645
0.03591759
0.03586651
0.03581330
0.03575801
0.03570069
0.03564135
0.03557998
0.03551658
0.03545113
0.03538358
0.03531391
0.03524209
0.03516809
0.03509188
0.03501346
0.03493283
0.03484998
0.03476495
0.03467779
0.03458854
0.03449729
0.03440415
0.03430924
0.03421269
0.03411470
0.03401545
0.03391517
0.03381412
0.03371257
0.03361084
0.03350927
0.03340821
0.03330806
0.03320925
0.03311222
0.03301743
0.03292538
0.03283657
0.03275151
0.03267075
0.03259480
0.03252422
0.03245952
0.03240124
0.03234986
0.03230587
0.03226971
0.03224180
0.03222248
0.03221209
0.03221085
0.03221897
0.03223654
0.03226361
0.03230012
0.03234594
0.03240083
0.03246446
0.03253641
0.03261615
0.03270308
0.03279647
0.03289551
0.03299932
0.03310692
0.03321725
0.03332920
0.03344160
0.03355322
0.03366283
0.03376914
0.03387090
0.03396682
0.03405568
0.03413628
0.03420746
0.03426817
0.03431741
0.03435429
0.03437805
0.03438803
0.03438372
0.03436474
0.03433087
0.03428204
0.03421834
0.03413999
0.03404739
0.03394108
0.03382172
0.03369013
0.03354723
0.03339404
0.03323168
0.03306134
0.03288427
0.03270176