# vtk DataFile Version 3.0
particle point data
ASCII
DATASET STRUCTURED_GRID
DIMENSIONS 143 143 2
POINTS 40898 double
0.00000000 0.00000000 0.00000000
0.00714286 0.00000000 0.00000000
0.01428571 0.00000000 0.00000000
0.02142857 0.00000000 0.00000000
0.02857143 0.00000000 0.00000000
0.03571429 0.00000000 0.00000000
0.04285714 0.00000000 0.00000000
0.05000000 0.00000000 0.00000000
0.05714286 0.00000000 0.00000000
0.06428571 0.00000000 0.00000000
0.07142857 0.00000000 0.00000000
0.07857143 0.00000000 0.00000000
0.08571429 0.00000000 0.00000000
0.09285714 0.00000000 0.00000000
0.10000000 0.00000000 0.00000000
0.10714286 0.00000000 0.00000000
0.11428571 0.00000000 0.00000000
0.12142857 0.00000000 0.00000000
0.12857143 0.00000000 0.00000000
0.13571429 0.00000000 0.00000000
0.14285714 0.00000000 0.00000000
0.15000000 0.00000000 0.00000000
0.15714286 0.00000000 0.00000000
0.16428571 0.00000000 0.00000000
0.17142857 0.00000000 0.00000000
0.17857143 0.00000000 0.00000000
0.18571429 0.00000000 0.00000000
0.19285714 0.00000000 0.00000000
0.20000000 0.00000000 0.00000000
0.20714286 0.00000000 0.00000000
0.21428571 0.00000000 0.00000000
0.22142857 0.00000000 0.00000000
0.22857143 0.00000000 0.00000000
0.23571429 0.00000000 0.00000000
0.24285714 0.00000000 0.00000000
0.25000000 0.00000000 0.00000000
0.25714286 0.00000000 0.00000000
0.26428571 0.00000000 0.00000000
0.27142857 0.00000000 0.00000000
0.27857143 0.00000000 0.00000000
0.28571429 0.00000000 0.00000000
0.29285714 0.00000000 0.00000000
0.30000000 0.00000000 0.00000000
0.30714286 0.00000000 0.00000000
0.31428571 0.00000000 0.00000000
0.32142857 0.00000000 0.00000000
0.32857143 0.00000000 0.00000000
0.33571429 0.00000000 0.00000000
0.34285714 0.00000000 0.00000000
0.35000000 0.00000000 0.00000000
0.35714286 0.00000000 0.00000000
0.36428571 0.00000000 0.00000000
0.37142857 0.00000000 0.00000000
0.37857143 0.00000000 0.00000000
0.38571429 0.00000000 0.00000000
0.39285714 0.00000000 0.00000000
0.40000000 0.00000000 0.00000000
0.40714286 0.00000000 0.00000000
0.41428571 0.00000000 0.00000000
0.42142857 0.00000000 0.00000000
0.42857143 0.00000000 0.00000000
0.43571429 0.00000000 0.00000000
0.44285714 0.00000000 0.00000000
0.45000000 0.00000000 0.00000000
0.45714286 0.00000000 0.00000000
0.46428571 0.00000000 0.00000000
0.47142857 0.00000000 0.00000000
0.47857143 0.00000000 0.00000000
0.48571429 0.00000000 0.00000000
0.49285714 0.00000000 0.00000000
0.50000000 0.00000000 0.00000000
0.50714286 0.00000000 0.00000000
0.51428571 0.00000000 0.00000000
0.52142857 0.00000000 0.00000000
0.52857143 0.00000000 0.00000000
0.53571429 0.00000000 0.00000000
0.54285714 0.00000000 0.00000000
0.55000000 0.00000000 0.00000000
0.55714286 0.00000000 0.00000000
0.56428571 0.00000000 0.00000000
0.57142857 0.00000000 0.00000000
0.57857143 0.00000000 0.00000000
0.58571429 0.00000000 0.00000000
0.59285714 0.00000000 0.00000000
0.60000000 0.00000000 0.00000000
0.60714286 0.00000000 0.00000000
0.61428571 0.00000000 0.00000000
0.62142857 0.00000000 0.00000000
0.62857143 0.00000000 0.00000000
0.63571429 0.00000000 0.00000000
0.64285714 0.00000000 0.00000000
0.65000000 0.00000000 0.00000000
0.65714286 0.00000000 0.00000000
0.66428571 0.00000000 0.00000000
0.67142857 0.00000000 0.00000000
0.67857143 0.00000000 0.00000000
0.68571429 0.00000000 0.00000000
0.69285714 0.00000000 0.00000000
0.70000000 0.00000000 0.00000000
0.70714286 0.00000000 0.00000000
0.71428571 0.00000000 0.00000000
0.72142857 0.00000000 0.00000000
0.72857143 0.00000000 0.00000000
0.73571429 0.00000000 0.00000000
0.74285714 0.00000000 0.00000000
0.75000000 0.00000000 0.00000000
0.75714286 0.00000000 0.00000000
0.76428571 0.00000000 0.00000000
0.77142857 0.00000000 0.00000000
0.77857143 0.00000000 0.00000000
0.78571429 0.00000000 0.00000000
0.79285714 0.00000000 0.00000000
0.80000000 0.00000000 0.00000000
0.80714286 0.00000000 0.00000000
0.81428571 0.00000000 0.00000000
0.82142857 0.00000000 0.00000000
0.82857143 0.00000000 0.00000000
0.83571429 0.00000000 0.00000000
0.84285714 0.00000000 0.00000000
0.85000000 0.00000000 0.00000000
0.85714286 0.00000000 0.00000000
0.86428571 0.00000000 0.00000000
0.87142857 0.00000000 0.00000000
0.87857143 0.00000000 0.00000000
0.88571429 0.00000000 0.00000000
0.89285714 0.00000000 0.00000000
0.90000000 0.00000000 0.00000000
0.90714286 0.00000000 0.00000000
0.91428571 0.00000000 0.00000000
0.92142857 0.00000000 0.00000000
0.92857143 0.00000000 0.00000000
0.93571429 0.00000000 0.00000000
0.94285714 0.00000000 0.00000000
0.95000000 0.00000000 0.00000000
0.95714286 0.00000000 0.00000000
0.96428571 0.00000000 0.00000000
0.97142857 0.00000000 0.00000000
0.97857143 0.00000000 0.00000000
0.98571429 0.00000000 0.00000000
0.99285714 0.00000000 0.00000000
1.00000000 0.00000000 0.00000000
1.00714286 0.00000000 0.00000000
1.01428571 0.00000000 0.00000000
0.00000000 0.00714286 0.00000000
0.00714286 0.00714286 0.00000000
0.01428571 0.00714286 0.00000000
0.02142857 0.00714286 0.00000000
0.02857143 0.00714286 0.00000000
0.03571429 0.00714286 0.00000000
0.04285714 0.00714286 0.00000000
0.05000000 0.00714286 0.00000000
0.05714286 0.00714286 0.00000000
0.06428571 0.00714286 0.00000000
0.07142857 0.00714286 0.00000000
0.07857143 0.00714286 0.00000000
0.08571429 0.00714286 0.00000000
0.09285714 0.00714286 0.00000000
0.10000000 0.00714286 0.00000000
0.10714286 0.00714286 0.00000000
0.11428571 0.00714286 0.00000000
0.12142857 0.00714286 0.00000000
0.12857143 0.00714286 0.00000000
0.13571429 0.00714286 0.00000000
0.14285714 0.00714286 0.00000000
0.15000000 0.00714286 0.00000000
0.15714286 0.00714286 0.00000000
0.16428571 0.00714286 0.00000000
0.17142857 0.00714286 0.00000000
0.17857143 0.00714286 0.00000000
0.18571429 0.00714286 0.00000000
0.19285714 0.00714286 0.00000000
0.20000000 0.00714286 0.00000000
0.20714286 0.00714286 0.00000000
0.21428571 0.00714286 0.00000000
0.22142857 0.00714286 0.00000000
0.22857143 0.00714286 0.00000000
0.23571429 0.00714286 0.00000000
0.24285714 0.00714286 0.00000000
0.25000000 0.00714286 0.00000000
0.25714286 0.00714286 0.00000000
0.26428571 0.00714286 0.00000000
0.27142857 0.00714286 0.00000000
0.27857143 0.00714286 0.00000000
0.28571429 0.00714286 0.00000000
0.29285714 0.00714286 0.00000000
0.30000000 0.00714286 0.00000000
0.30714286 0.00714286 0.00000000
0.31428571 0.00714286 0.00000000
0.32142857 0.00714286 0.00000000
0.32857143 0.00714286 0.00000000
0.33571429 0.00714286 0.00000000
0.34285714 0.00714286 0.00000000
0.35000000 0.00714286 0.00000000
0.35714286 0.00714286 0.00000000
0.36428571 0.00714286 0.00000000
0.37142857 0.00714286 0.00000000
0.37857143 0.00714286 0.00000000
0.38571429 0.00714286 0.00000000
0.39285714 0.00714286 0.00000000
0.40000000 0.00714286 0.00000000
0.40714286 0.00714286 0.00000000
0.41428571 0.00714286 0.00000000
0.42142857 0.00714286 0.00000000
0.42857143 0.00714286 0.00000000
0.43571429 0.00714286 0.00000000
0.44285714 0.00714286 0.00000000
0.45000000 0.00714286 0.00000000
0.45714286 0.00714286 0.00000000
0.46428571 0.00714286 0.00000000
0.47142857 0.00714286 0.00000000
0.47857143 0.00714286 0.00000000
0.48571429 0.00714286 0.00000000
0.49285714 0.00714286 0.00000000
0.50000000 0.00714286 0.00000000
0.50714286 0.00714286 0.00000000
0.51428571 0.00714286 0.00000000
0.52142857 0.00714286 0.00000000
0.52857143 0.00714286 0.00000000
0.53571429 0.00714286 0.00000000
0.54285714 0.00714286 0.00000000
0.55000000 0.00714286 0.00000000
0.55714286 0.00714286 0.00000000
0.56428571 0.00714286 0.00000000
0.57142857 0.00714286 0.00000000
0.57857143 0.00714286 0.00000000
0.58571429 0.00714286 0.00000000
0.59285714 0.00714286 0.00000000
0.60000000 0.00714286 0.00000000
0.60714286 0.00714286 0.00000000
0.61428571 0.00714286 0.00000000
0.62142857 0.00714286 0.00000000
0.62857143 0.00714286 0.00000000
0.63571429 0.00714286 0.00000000
0.64285714 0.00714286 0.00000000
0.65000000 0.00714286 0.00000000
0.65714286 0.00714286 0.00000000
0.66428571 0.00714286 0.00000000
0.67142857 0.00714286 0.00000000
0.67857143 0.00714286 0.00000000
0.68571429 0.00714286 0.00000000
0.69285714 0.00714286 0.00000000
0.70000000 0.00714286 0.00000000
0.70714286 0.00714286 0.00000000
0.71428571 0.00714286 0.00000000
0.72142857 0.00714286 0.00000000
0.72857143 0.00714286 0.00000000
0.73571429 0.00714286 0.00000000
0.74285714 0.00714286 0.00000000
0.75000000 0.00714286 0.00000000
0.75714286 0.00714286 0.00000000
0.76428571 0.00714286 0.00000000
0.77142857 0.00714286 0.00000000
0.77857143 0.00714286 0.00000000
0.78571429 0.00714286 0.00000000
0.79285714 0.00714286 0.00000000
0.80000000 0.00714286 0.00000000
0.80714286 0.00714286 0.00000000
0.81428571 0.00714286 0.00000000
0.82142857 0.00714286 0.00000000
0.82857143 0.00714286 0.00000000
0.83571429 0.00714286 0.00000000
0.84285714 0.00714286 0.00000000
0.85000000 0.00714286 0.00000000
0.85714286 0.00714286 0.00000000
0.86428571 0.00714286 0.00000000
0.87142857 0.00714286 0.00000000
0.87857143 0.00714286 0.00000000
0.88571429 0.00714286 0.00000000
0.89285714 0.00714286 0.00000000
0.90000000 0.00714286 0.00000000
0.90714286 0.00714286 0.00000000
0.91428571 0.00714286 0.00000000
0.92142857 0.00714286 0.00000000
0.92857143 0.00714286 0.00000000
0.93571429 0.00714286 0.00000000
0.94285714 0.00714286 0.00000000
0.95000000 0.00714286 0.00000000
0.95714286 0.00714286 0.00000000
0.96428571 0.00714286 0.00000000
0.97142857 0.00714286 0.00000000
0.97857143 0.00714286 0.00000000
0.98571429 0.00714286 0.00000000
0.99285714 0.00714286 0.00000000
1.00000000 0.00714286 0.00000000
1.00714286 0.00714286 0.00000000
1.01428571 0.00714286 0.00000000
0.00000000 0.01428571 0.00000000
0.00714286 0.01428571 0.00000000
0.01428571 0.01428571 0.00000000
0.02142857 0.01428571 0.00000000
0.02857143 0.01428571 0.00000000
0.03571429 0.01428571 0.00000000
0.04285714 0.01428571 0.00000000
0.05000000 0.01428571 0.00000000
0.05714286 0.01428571 0.00000000
0.06428571 0.01428571 0.00000000
0.07142857 0.01428571 0.00000000
0.07857143 0.01428571 0.00000000
0.08571429 0.01428571 0.00000000
[...]
CELL_DATA 20164
SCALARS pressure double 
 LOOKUP_TABLE default
0.00000000
0.00000000
0.00000000
0.00000000
0.00000000
0.00000000
0.00000000
0.00000000
0.00000000
0.00000000
0.00000000
0.00000000
0.00000000
0.00000000
0.00000000
0.00000000
0.00000000
0.00000000
0.00000000
0.00000000
0.00000000
0.00000000
0.00000000
0.00000000
0.00000000
0.00000000
0.00000000
0.00000000
0.00000000
0.00000000
0.00000000
0.00000000
0.00000000
0.00000000
0.00000000
0.00000000
0.00000000
0.00000000
0.00000000
0.00000000
0.00000000
0.00000000
0.00000000
0.00000000
0.00000000
0.00000000
0.00000000
0.00000000
0.00000000
0.00000000
0.00000000
0.00000000
0.00000000
0.00000000
0.00000000
0.00000000
0.00000000
0.00000000
0.00000000
0.00000000
0.00000000
0.00000000
0.00000000
0.00000000
0.00000000
0.00000000
0.00000000
0.00000000
0.00000000
0.00000000
0.00000000
0.00000000
0.00000000
0.00000000
0.00000000
0.00000000
0.00000000
0.00000000
0.00000000
0.00000000
0.00000000
0.00000000
0.00000000
0.00000000
0.00000000
0.00000000
0.00000000
0.00000000
0.00000000
0.00000000
0.00000000
0.00000000
0.00000000
0.00000000
0.00000000
0.00000000
0.00000000
0.00000000
0.00000000
0.00000000
0.00000000
0.00000000
0.00000000
0.00000000
0.00000000
0.00000000
0.00000000
0.00000000
0.00000000
0.00000000
0.00000000
0.00000000
0.00000000
0.00000000
0.00000000
0.00000000
0.00000000
0.00000000
0.00000000
0.00000000
0.00000000
0.00000000
0.00000000
0.00000000
0.00000000
0.00000000
0.00000000
0.00000000
0.00000000
0.00000000
0.00000000
0.00000000
0.00000000
0.00000000
0.00000000
0.00000000
0.00000000
0.00000000
0.00000000
0.00000000
0.00000000
0.00000000
0.00000000
0.03588881
0.03589622
0.03590004
0.03589570
0.03588143
0.03585699
0.03582289
0.03577995
0.03572909
0.03567127
0.03560735
0.03553813
0.03546432
0.03538652
0.03530525
0.03522093
0.03513392
0.03504452
0.03495295
0.03485942
0.03476409
0.03466709
0.03456856
0.03446859
0.03436731
0.03426484
0.03416131
0.03405686
0.03395165
0.03384586
0.03373970
0.03363340
0.03352721
0.03342141
0.03331631
0.03321224
0.03310956
0.03300864
0.03290990
0.03281376
0.03272066
0.03263108
0.03254548
0.03246437
0.03238823
0.03231758
0.03225293
0.03219478
0.03214364
0.03209998
0.03206429
0.03203702
0.03201859
0.03200939
0.03200978
0.03202007
0.03204051
0.03207132
0.03211263
0.03216452
0.03222699
0.03229996
0.03238329
0.03247671
0.03257991
0.03269245
0.03281381
0.03294339
0.03308048
0.03322428
0.03337389
0.03352836
0.03368662
0.03384754
0.03400992
0.03417252
0.03433402
0.03449309
0.03464836
0.03479845
0.03494197
0.03507757
0.03520391
0.03531969
0.03542369
0.03551475
0.03559179
0.03565385
0.03570007
0.03572972
0.03574220
0.03573706
0.03571398
0.03567283
0.03561361
0.03553649
0.03544177
0.03532996
0.03520165
0.03505763
0.03489878
0.03472612
0.03454078
0.03434397
0.03413699
0.03392120
0.03369802
0.03346890
0.03323529
0.03299867
0.03276049
0.03252218
0.03228514
0.03205070
0.03182017
0.03159476
0.03137564
0.03116387
0.03096048
0.03076639
0.03058246
0.03040946
0.03024812
0.03009908
0.02996292
0.02984016
0.02973129
0.02963669
0.02955671
0.02949159
0.02944148
0.02940635
0.02938596
0.02937975
0.02938665
0.02940486
0.02943148
0.02946200
0.02948964
0.02950516
0.00000000
0.00000000
0.03588141
0.03588882
0.03589060
0.03588477
0.03587026
0.03584682
0.03581472
0.03577455
0.03572700
0.03567285
0.03561282
0.03554760
0.03547782
0.03540403
0.03532671
0.03524626
0.03516302
0.03507728
0.03498929
0.03489924
0.03480730
0.03471363
0.03461835
0.03452159
0.03442348
0.03432413
0.03422369
0.03412230
0.03402012
0.03391733
0.03381414
0.03371077
0.03360746
0.03350448
0.03340213
0.03330073
0.03320061
0.03310215
0.03300572
0.03291174
0.03282063
0.03273284
0.03264881
0.03256903
0.03249397
0.03242412
0.03235995
0.03230196
0.03225062
0.03220641
0.03216977
0.03214114
0.03212094
0.03210953
0.03210726
0.03211443
0.03213129
0.03215804
0.03219481
0.03224169
0.03229868
0.03236571
0.03244263
0.03252922
0.03262515
0.03273003
0.03284336
0.03296456
0.03309295
0.03322778
0.03336819
0.03351326
0.03366198
0.03381326
0.03396596
0.03411889
0.03427078
0.03442037
0.03456634
0.03470736
0.03484213
0.03496933
0.03508768
0.03519595
0.03529297
0.03537762
0.03544888
0.03550582
0.03554763
0.03557360
0.03558317
0.03557591
0.03555153
0.03550989
0.03545100
0.03537502
0.03528226
0.03517319
0.03504841
0.03490864
0.03475474
0.03458771
0.03440860
0.03421859
0.03401892
0.03381090
0.03359588
0.03337524
0.03315039
0.03292271
0.03269362
0.03246446
0.03223657
0.03201124
0.03178970
0.03157312
0.03136260
0.03115916
0.03096377
0.03077731
0.03060059
0.03043435
0.03027924
0.03013589
0.03000480
0.02988647
0.02978129
0.02968959
0.02961163
0.02954757
0.02949745
0.02946113
0.02943826
0.02942817
0.02942976
0.02944130
0.02946028
0.02948314
0.02950515
0.02952068
0.00000000
0.00000000
0.03587760
0.03588705
0.03588878
0.03588252
0.03586802
0.03584529
0.03581463
0.03577651
0.03573153
0.03568030
0.03562347
0.03556163
0.03549533
0.03542507
0.03535128
0.03527435
0.03519458
0.03511227
0.03502764
0.03494089
0.03485220
0.03476170
0.03466955
0.03457586
0.03448077
0.03438440
0.03428689
0.03418839
0.03408905
0.03398905
0.03388859
0.03378789
0.03368717
0.03358671
0.03348678
0.03338768
0.03328975
0.03319333
0.03309879
0.03300653
0.03291695
0.03283047
0.03274753
0.03266859
0.03259410
0.03252453
0.03246034
0.03240201
0.03234999
0.03230475
0.03226672
0.03223632
0.03221394
0.03219997
0.03219473
0.03219851
0.03221157
0.03223411
0.03226627
0.03230812
0.03235969
0.03242091
0.03249165
0.03257170
0.03266076
0.03275846
0.03286432
0.03297780
0.03309824
0.03322493
0.03335705
0.03349371
0.03363393
0.03377670
0.03392089
0.03406536
0.03420891
0.03435029
0.03448824
0.03462150
0.03474878
0.03486883
0.03498041
0.03508233
0.03517345
0.03525269
0.03531908
0.03537171
0.03540980
0.03543267
0.03543978
0.03543071
0.03540518
0.03536306
0.03530437
0.03522927
0.03513805
0.03503118
0.03490922
0.03477291
0.03462306
0.03446062
0.03428664
0.03410225
0.03390866
0.03370711
0.03349891
0.03328541
0.03306795
0.03284788
0.03262654
0.03240524
0.03218525
0.03196783
0.03175413
0.03154529
0.03134234
0.03114628
0.03095801
0.03077838
0.03060813
0.03044796
0.03029850
0.03016028
0.03003381
0.02991948
0.02981765
0.02972859
0.02965250
0.02958947
0.02953948
0.02950234
0.02947767
0.02946483
0.02946284
0.02947027
0.02948519
0.02950512
0.02952714
0.02954834
0.00000000
0.00000000
0.03588213
0.03589299
0.03589493
0.03588849
0.03587398
0.03585169
0.03582198
0.03578534
0.03574228
0.03569336
0.03563913
0.03558011
0.03551679
0.03544961
0.03537897
0.03530522
0.03522864
0.03514949
0.03506801
0.03498437
0.03489874
0.03481126
0.03472208
0.03463132
0.03453909
0.03444554
0.03435078
0.03425498
0.03415827
0.03406083
0.03396285
0.03386454
0.03376612
0.03366785
0.03356999
0.03347284
0.03337670
0.03328191
0.03318883
0.03309783
0.03300931
0.03292366
0.03284131
0.03276270
0.03268827
0.03261847
0.03255375
0.03249457
0.03244139
0.03239463
0.03235474
0.03232213
0.03229718
0.03228027
0.03227173
0.03227186
0.03228089
0.03229905
0.03232648
0.03236327
0.03240944
0.03246496
0.03252971
0.03260349
0.03268604
0.03277699
0.03287591
0.03298227
0.03309545
0.03321477
0.03333943
0.03346860
0.03360132
0.03373660
0.03387338
0.03401053
0.03414689
0.03428126
0.03441241
0.03453911
0.03466010
0.03477417
0.03488011
0.03497675
0.03506299
0.03513779
0.03520017
0.03524927
0.03528431
0.03530464
0.03530972
0.03529915
0.03527266
0.03523012
0.03517156
0.03509712
0.03500710
0.03490196
0.03478225
0.03464868
0.03450207
0.03434334
0.03417351
0.03399369
0.03380504
0.03360879
0.03340623
0.03319864
0.03298734
0.03277364
0.03255884
0.03234420
0.03213096
0.03192032
0.03171340
0.03151128
0.03131496
0.03112538
0.03094341
0.03076983
0.03060536
0.03045064
0.03030625
0.03017268
0.03005037
0.02993969
0.02984093
0.02975432
0.02968000
0.02961803
0.02956835
0.02953079
0.02950501
0.02949045
0.02948634
0.02949163
0.02950502
0.02952497
0.02954996
0.02957887
0.00000000
0.00000000
0.03589692
0.03590785
0.03590943
0.03590253
0.03588772
0.03586548
0.03583628
0.03580059
0.03575891
0.03571175
0.03565958
0.03560288
0.03554209
0.03547759
0.03540973
0.03533882
0.03526514
0.03518891
0.03511034
0.03502960
0.03494685
0.03486221
0.03477583
0.03468781
0.03459827
0.03450734
0.03441514
0.03432182
0.03422751
0.03413238
0.03403661
0.03394040
0.03384396
0.03374754
0.03365139
0.03355578
0.03346102
0.03336744
0.03327536
0.03318515
0.03309719
0.03301186
0.03292959
0.03285078
0.03277588
0.03270531
0.03263953
0.03257898
0.03252410
0.03247533
0.03243310
0.03239782
0.03236988
0.03234964
0.03233745
0.03233360
0.03233836
0.03235194
0.03237451
0.03240616
0.03244694
0.03249683
0.03255573
0.03262347
0.03269981
0.03278440
0.03287684
0.03297663
0.03308318
0.03319583
0.03331382
0.03343633
0.03356245
0.03369122
0.03382159
0.03395247
0.03408274
0.03421120
0.03433666
0.03445791
0.03457373
0.03468291
0.03478427
0.03487666
0.03495900
0.03503025
0.03508946
0.03513577
0.03516842
0.03518677
0.03519028
0.03517856
0.03515134
0.03510849
0.03505004
0.03497614
0.03488708
0.03478330
0.03466538
0.03453399
0.03438994
0.03423415
0.03406763
0.03389145
0.03370678
0.03351482
0.03331683
0.03311407
0.03290783
0.03269940
0.03249003
0.03228098
0.03207343
0.03186854
0.03166742
0.03147108
0.03128051
0.03109658
0.03092013
0.03075189
0.03059255
0.03044268
0.03030283
0.03017344
0.03005491
0.02994754
0.02985160
0.02976726
0.02969465
0.02963380
0.02958465
0.02954705
0.02952073
0.02950529
0.02950018
0.02950473
0.02951816
0.02953971
0.02956882
0.02960546
0.00000000
0.00000000
0.03592246
0.03593205
0.03593242
0.03592446
0.03590888
0.03588625
0.03585707
0.03582185
0.03578106
0.03573515
0.03568458
0.03562976
0.03557107
0.03550886
0.03544343
0.03537507
0.03530400
0.03523042
0.03515453
0.03507648
0.03499639
0.03491439
0.03483060
0.03474513
0.03465808
0.03456956
0.03447969
0.03438860
0.03429643
0.03420332
0.03410946
0.03401503
0.03392022
0.03382528
0.03373043
0.03363596
0.03354214
0.03344929
0.03335773
0.03326780
0.03317988
0.03309435
0.03301159
0.03293203
0.03285608
0.03278419
0.03271677
0.03265429
0.03259717
0.03254585
0.03250076
0.03246232
0.03243092
0.03240693
0.03239070
0.03238255
0.03238274
0.03239151
0.03240904
0.03243544
0.03247079
0.03251508
0.03256823
0.03263011
0.03270049
0.03277905
0.03286543
0.03295913
0.03305961
0.03316622
0.03327824
0.03339486
0.03351521
0.03363834
0.03376324
0.03388882
0.03401399
0.03413757
0.03425839
0.03437524
0.03448692
0.03459224
0.03469003
0.03477914
0.03485850
0.03492708
0.03498393
0.03502820
0.03505912
0.03507606
0.03507849
0.03506600
0.03503834
0.03499537
0.03493711
0.03486372
0.03477548
0.03467284
0.03455636
0.03442671
0.03428470
0.03413125
0.03396734
0.03379405
0.03361254
0.03342400
0.03322967
0.03303080
0.03282866
0.03262452
0.03241962
0.03221518
0.03201238
0.03181232
0.03161609
0.03142469
0.03123903
0.03105999
0.03088834
0.03072478
0.03056994
0.03042438
0.03028857
0.03016292
0.03004779
0.02994343
0.02985008
0.02976787
0.02969691
0.02963722
0.02958877
0.02955143
0.02952504
0.02950934
0.02950400
0.02950867
0.02952300
0.02954679
0.02958010
0.02962351
0.00000000
0.00000000
0.03595848
0.03596548
0.03596371
0.03595401
0.03593710
0.03591357
0.03588395
0.03584872
0.03580836
0.03576327
0.03571387
0.03566051
0.03560355
0.03554327
0.03547995
0.03541381
0.03534507
0.03527389
0.03520043
0.03512482
0.03504718
0.03496760
0.03488618
0.03480302
0.03471821
0.03463186
0.03454406
0.03445493
0.03436460
0.03427321
0.03418091
0.03408789
0.03399433
0.03390045
0.03380649
0.03371269
0.03361933
0.03352670
0.03343513
0.03334494
0.03325650
0.03317017
0.03308634
0.03300542
0.03292783
0.03285398
0.03278433
0.03271931
0.03265935
0.03260491
0.03255641
0.03251427
0.03247891
0.03245070
0.03243001
0.03241717
0.03241246
0.03241614
0.03242841
0.03244941
0.03247923
0.03251790
0.03256536
0.03262150
0.03268612
0.03275893
0.03283958
0.03292762
0.03302252
0.03312366
0.03323033
0.03334177
0.03345710
0.03357540
0.03369566
0.03381685
0.03393784
0.03405749
0.03417463
0.03428807
0.03439660
0.03449903
0.03459420
0.03468097
0.03475825
0.03482502
0.03488032
0.03492329
0.03495318
0.03496933
0.03497120
0.03495840
0.03493066
0.03488784
0.03482995
0.03475715
0.03466973
0.03456812
0.03445288
0.03432469
0.03418435
0.03403277
0.03387095
0.03369997
0.03352096
0.03333513
0.03314371
0.03294794
0.03274909
0.03254841
0.03234713
0.03214646
0.03194756
0.03175151
0.03155937
0.03137211
0.03119064
0.03101577
0.03084824
0.03068874
0.03053783
0.03039604
0.03026381
0.03014149
0.03002940
0.02992776
0.02983677
0.02975655
0.02968717
0.02962866
0.02958102
0.02954416
0.02951802
0.02950244
0.02949733
0.02950256
0.02951814
0.02954420
0.02958121
0.02963006
0.00000000
0.00000000
0.03600433
0.03600769
0.03600291
0.03599078
0.03597195
0.03594701
0.03591647
0.03588080
0.03584043
0.03579576
0.03574713
0.03569487
0.03563927
0.03558059
0.03551906
0.03545486
0.03538817
0.03531912
0.03524783
0.03517442
0.03509896
0.03502155
0.03494226
0.03486115
0.03477833
0.03469385
0.03460782
0.03452034
0.03443151
0.03434147
0.03425036
0.03415835
0.03406561
0.03397234
0.03387877
0.03378514
0.03369170
0.03359875
0.03350659
0.03341554
0.03332596
0.03323821
0.03315267
0.03306974
0.03298984
0.03291339
0.03284084
0.03277262
0.03270919
0.03265099
0.03259847
0.03255206
0.03251218
0.03247924
0.03245361
0.03243565
0.03242566
0.03242393
0.03243067
0.03244606
0.03247022
0.03250319
0.03254495
0.03259541
0.03265441
0.03272168
0.03279689
0.03287962
0.03296937
0.03306552
0.03316741
0.03327428
0.03338526
0.03349946
0.03361588
0.03373348
0.03385115
0.03396776
0.03408214
0.03419308
0.03429940
0.03439988
0.03449336
0.03457870
0.03465479
0.03472060
0.03477517
0.03481762
0.03484719
0.03486321
0.03486514
0.03485255
0.03482519
0.03478289
0.03472567
0.03465368
0.03456720
0.03446666
0.03435261
0.03422575
0.03408688
0.03393690
0.03377681
0.03360770
0.03343072
0.03324705
0.03305794
0.03286464
0.03266841
0.03247050
0.03227213
0.03207451
0.03187877
0.03168600
0.03149724
0.03131344
0.03113546
0.03096411
0.03080010
0.03064406
0.03049655
0.03035804
0.03022893
0.03010954
0.03000014
0.02990094
0.02981208
0.02973367
0.02966578
0.02960844
0.02956164
0.02952538
0.02949965
0.02948442
0.02947973
0.02948566
0.02950244
0.02953046
0.02957039
0.02962326
0.00000000
0.00000000
0.03605920
0.03605802
0.03604947
0.03603424
0.03601293
0.03598608
0.03595418
0.03591765
0.03587689
0.03583224
0.03578402
0.03573251
0.03567796
0.03562057
0.03556052
0.03549797
0.03543305
0.03536585
0.03529647
0.03522498
0.03515145
0.03507593
0.03499847
0.03491914
0.03483798
0.03475506
0.03467046
0.03458427
0.03449657
0.03440748
0.03431713
0.03422567
0.03413326
0.03404010
0.03394639
0.03385236
0.03375827
0.03366438
0.03357100
0.03347845
0.03338705
0.03329719
0.03320923
0.03312358
0.03304066
0.03296089
0.03288472
0.03281260
0.03274499
0.03268235
0.03262515
0.03257383
0.03252883
0.03249058
0.03245949
0.03243592
0.03242022
0.03241269
0.03241358
0.03242309
0.03244138
0.03246852
0.03250451
0.03254930
0.03260275
0.03266462
0.03273461
0.03281232
0.03289726
0.03298886
0.03308645
0.03318929
0.03329654
0.03340729
0.03352058
0.03363535
0.03375050
0.03386491
0.03397738
0.03408671
0.03419171
0.03429115
0.03438386
0.03446866
0.03454445
0.03461018
0.03466487
0.03470762
0.03473765
0.03475427
0.03475693
0.03474518
0.03471875
0.03467748
0.03462135
0.03455052
0.03446525
0.03436597
0.03425325
0.03412776
0.03399031
0.03384182
0.03368328
0.03351579
0.03334051
0.03315864
0.03297141
0.03278010
0.03258597
0.03239027
0.03219423
0.03199905
0.03180586
0.03161576
0.03142975
0.03124878
0.03107369
0.03090527
0.03074421
0.03059110
0.03044648
0.03031077
0.03018434
0.03006749
0.02996045
0.02986338
0.02977641
0.02969963
0.02963309
0.02957683
0.02953086
0.02949521
0.02946993
0.02945509
0.02945083
0.02945739
0.02947512
0.02950457
0.02954653
0.02960204
0.00000000
0.00000000
0.03612218
0.03611571
0.03610272
0.03608380
0.03605949
0.03603026
0.03599657
0.03595879
0.03591727
0.03587231
0.03582417
0.03577310
0.03571928
0.03566288
0.03560403
0.03554284
0.03547940
0.03541378
0.03534602
0.03527617
0.03520427
0.03513034
0.03505440
0.03497651
0.03489667
0.03481496
0.03473141
0.03464609
0.03455908
0.03447049
0.03438041
0.03428900
0.03419640
0.03410278
0.03400834
0.03391330
0.03381790
0.03372241
0.03362711
0.03353233
0.03343839
0.03334566
0.03325453
0.03316538
0.03307865
0.03299478
0.03291421
0.03283741
0.03276487
0.03269705
0.03263444
0.03257750
0.03252672
0.03248253
0.03244538
0.03241566
0.03239374
0.03237997
0.03237462
0.03237793
0.03239009
0.03241119
0.03244128
0.03248033
0.03252823
0.03258478
0.03264969
0.03272259
0.03280301
0.03289040
0.03298411
0.03308340
0.03318745
0.03329536
0.03340616
0.03351880
0.03363218
0.03374516
0.03385655
0.03396513
0.03406968
0.03416898
0.03426181
0.03434700
0.03442341
0.03448997
0.03454566
0.03458959
0.03462092
0.03463896
0.03464312
0.03463295
0.03460813
0.03456850
0.03451403
0.03444485
0.03436123
0.03426358
0.03415246
0.03402856
0.03389268
0.03374574
0.03358875
0.03342282
0.03324909
0.03306881
0.03288320
0.03269356
0.03250116
0.03230726
0.03211310
0.03191989
0.03172875
0.03154078
0.03135699
0.03117831
0.03100558
0.03083956
0.03068092
0.03053025
0.03038803
0.03025467
0.03013051
0.03001581
0.02991077
0.02981553
0.02973019
0.02965482
0.02958946
0.02953414
0.02948890
0.02945379
0.02942890
0.02941437
0.02941041
0.02941734
0.02943563
0.02946590
0.02950897
0.02956587
0.00000000
0.00000000
0.03619231
0.03617991
0.03616189
0.03613875
0.03611097
0.03607895
0.03604308
0.03600370
0.03596108
0.03591550
0.03586715
0.03581622
0.03576285
0.03570715
0.03564922
0.03558911
0.03552687
0.03546252
0.03539609
0.03532757
0.03525698
0.03518430
0.03510955
0.03503272
0.03495383
0.03487290
0.03478997
0.03470508
0.03461828
0.03452967
0.03443934
0.03434741
0.03425401
0.03415930
0.03406348
0.03396674
0.03386932
0.03377149
0.03367352
0.03357573
0.03347844
0.03338203
0.03328688
0.03319340
0.03310202
0.03301318
0.03292737
0.03284506
0.03276674
0.03269293
0.03262411
0.03256081
0.03250350
0.03245268
0.03240880
0.03237232
0.03234362
0.03232309
0.03231105
0.03230776
0.03231344
0.03232823
0.03235222
0.03238539
0.03242767
0.03247889
0.03253879
0.03260702
0.03268313
0.03276659
0.03285675
0.03295290
0.03305423
0.03315983
0.03326874
0.03337990
0.03349221
0.03360451
0.03371560
0.03382425
0.03392923
0.03402927
0.03412315
0.03420966
0.03428764
0.03435597
0.03441364
0.03445968
0.03449325
0.03451361
0.03452016
0.03451241
0.03449002
0.03445280
0.03440070
0.03433384
0.03425246
0.03415698
0.03404794
0.03392603
0.03379204
0.03364691
0.03349165
0.03332737
0.03315525
0.03297651
0.03279244
0.03260431
0.03241342
0.03222106
0.03202846
0.03183685
0.03164738
0.03146112
0.03127911
0.03110226
0.03093141
0.03076732
0.03061064
0.03046193
0.03032166
0.03019022
0.03006792
0.02995499
0.02985160
0.02975787
0.02967387
0.02959966
0.02953526
0.02948070
0.02943602
0.02940129
0.02937663
0.02936222
0.02935832
0.02936531
0.02938369
0.02941412
0.02945742
0.02951458
0.00000000
0.00000000
0.03626859
0.03624973
0.03622617
0.03619835
0.03616668
0.03613149
0.03609310
0.03605180
0.03600780
0.03596130
0.03591247
0.03586141
0.03580822
0.03575295
0.03569566
0.03563634
0.03557501
0.03551164
0.03544622
0.03537871
0.03530907
0.03523729
0.03516333
0.03508717
0.03500879
0.03492820
0.03484540
0.03476042
0.03467331
0.03458411
0.03449292
0.03439984
0.03430498
0.03420850
0.03411057
0.03401138
0.03391117
0.03381019
0.03370871
0.03360705
0.03350554
0.03340455
0.03330448
0.03320574
0.03310878
0.03301407
0.03292208
0.03283334
0.03274835
0.03266766
0.03259178
0.03252126
0.03245662
0.03239839
0.03234707
0.03230313
0.03226701
0.03223914
0.03221986
0.03220949
0.03220829
0.03221642
0.03223401
0.03226109
0.03229760
0.03234342
0.03239830
0.03246191
0.03253384
0.03261356
0.03270046
0.03279381
0.03289282
0.03299658
0.03310413
0.03321441
0.03332631
0.03343865
0.03355021
0.03365976
0.03376602
0.03386771
0.03396358
0.03405238
0.03413291
0.03420404
0.03426470
0.03431389
0.03435073
0.03437445
0.03438439
0.03438005
0.03436105
0.03432716
0.03427832
0.03421460
0.03413625
0.03404365
0.03393735
0.03381800
0.03368643
0.03354355
0.03339039
0.03322806
0.03305776
0.03288073
0.03269825