# vtk DataFile Version 3.0
particle point data
ASCII
DATASET STRUCTURED_GRID
DIMENSIONS 143 143 2
POINTS 40898 double
0.00000000 0.00000000 0.00000000
0.00714286 0.00000000 0.00000000
0.01428571 0.00000000 0.00000000
0.02142857 0.00000000 0.00000000
0.02857143 0.00000000 0.00000000
0.03571429 0.00000000 0.00000000
0.04285714 0.00000000 0.00000000
0.05000000 0.00000000 0.00000000
0.05714286 0.00000000 0.00000000
0.06428571 0.00000000 0.00000000
0.07142857 0.00000000 0.00000000
0.07857143 0.00000000 0.00000000
0.08571429 0.00000000 0.00000000
0.09285714 0.00000000 0.00000000
0.10000000 0.00000000 0.00000000
0.10714286 0.00000000 0.00000000
0.11428571 0.00000000 0.00000000
0.12142857 0.00000000 0.00000000
0.12857143 0.00000000 0.00000000
0.13571429 0.00000000 0.00000000
0.14285714 0.00000000 0.00000000
0.15000000 0.00000000 0.00000000
0.15714286 0.00000000 0.00000000
0.16428571 0.00000000 0.00000000
0.17142857 0.00000000 0.00000000
0.17857143 0.00000000 0.00000000
0.18571429 0.00000000 0.00000000
0.19285714 0.00000000 0.00000000
0.20000000 0.00000000 0.00000000
0.20714286 0.00000000 0.00000000
0.21428571 0.00000000 0.00000000
0.22142857 0.00000000 0.00000000
0.22857143 0.00000000 0.00000000
0.23571429 0.00000000 0.00000000
0.24285714 0.00000000 0.00000000
0.25000000 0.00000000 0.00000000
0.25714286 0.00000000 0.00000000
0.26428571 0.00000000 0.00000000
0.27142857 0.00000000 0.00000000
0.27857143 0.00000000 0.00000000
0.28571429 0.00000000 0.00000000
0.29285714 0.00000000 0.00000000
0.30000000 0.00000000 0.00000000
0.30714286 0.00000000 0.00000000
0.31428571 0.00000000 0.00000000
0.32142857 0.00000000 0.00000000
0.32857143 0.00000000 0.00000000
0.33571429 0.00000000 0.00000000
0.34285714 0.00000000 0.00000000
0.35000000 0.00000000 0.00000000
0.35714286 0.00000000 0.00000000
0.36428571 0.00000000 0.00000000
0.37142857 0.00000000 0.00000000
0.37857143 0.00000000 0.00000000
0.38571429 0.00000000 0.00000000
0.39285714 0.00000000 0.00000000
0.40000000 0.00000000 0.00000000
0.40714286 0.00000000 0.00000000
0.41428571 0.00000000 0.00000000
0.42142857 0.00000000 0.00000000
0.42857143 0.00000000 0.00000000
0.43571429 0.00000000 0.00000000
0.44285714 0.00000000 0.00000000
0.45000000 0.00000000 0.00000000
0.45714286 0.00000000 0.00000000
0.46428571 0.00000000 0.00000000
0.47142857 0.00000000 0.00000000
0.47857143 0.00000000 0.00000000
0.48571429 0.00000000 0.00000000
0.49285714 0.00000000 0.00000000
0.50000000 0.00000000 0.00000000
0.50714286 0.00000000 0.00000000
0.51428571 0.00000000 0.00000000
0.52142857 0.00000000 0.00000000
0.52857143 0.00000000 0.00000000
0.53571429 0.00000000 0.00000000
0.54285714 0.00000000 0.00000000
0.55000000 0.00000000 0.00000000
0.55714286 0.00000000 0.00000000
0.56428571 0.00000000 0.00000000
0.57142857 0.00000000 0.00000000
0.57857143 0.00000000 0.00000000
0.58571429 0.00000000 0.00000000
0.59285714 0.00000000 0.00000000
0.60000000 0.00000000 0.00000000
0.60714286 0.00000000 0.00000000
0.61428571 0.00000000 0.00000000
0.62142857 0.00000000 0.00000000
0.62857143 0.00000000 0.00000000
0.63571429 0.00000000 0.00000000
0.64285714 0.00000000 0.00000000
0.65000000 0.00000000 0.00000000
0.65714286 0.00000000 0.00000000
0.66428571 0.00000000 0.00000000
0.67142857 0.00000000 0.00000000
0.67857143 0.00000000 0.00000000
0.68571429 0.00000000 0.00000000
0.69285714 0.00000000 0.00000000
0.70000000 0.00000000 0.00000000
0.70714286 0.00000000 0.00000000
0.71428571 0.00000000 0.00000000
0.72142857 0.00000000 0.00000000
0.72857143 0.00000000 0.00000000
0.73571429 0.00000000 0.00000000
0.74285714 0.00000000 0.00000000
0.75000000 0.00000000 0.00000000
0.75714286 0.00000000 0.00000000
0.76428571 0.00000000 0.00000000
0.77142857 0.00000000 0.00000000
0.77857143 0.00000000 0.00000000
0.78571429 0.00000000 0.00000000
0.79285714 0.00000000 0.00000000
0.80000000 0.00000000 0.00000000
0.80714286 0.00000000 0.00000000
0.81428571 0.00000000 0.00000000
0.82142857 0.00000000 0.00000000
0.82857143 0.00000000 0.00000000
0.83571429 0.00000000 0.00000000
0.84285714 0.00000000 0.00000000
0.85000000 0.00000000 0.00000000
0.85714286 0.00000000 0.00000000
0.86428571 0.00000000 0.00000000
0.87142857 0.00000000 0.00000000
0.87857143 0.00000000 0.00000000
0.88571429 0.00000000 0.00000000
0.89285714 0.00000000 0.00000000
0.90000000 0.00000000 0.00000000
0.90714286 0.00000000 0.00000000
0.91428571 0.00000000 0.00000000
0.92142857 0.00000000 0.00000000
0.92857143 0.00000000 0.00000000
0.93571429 0.00000000 0.00000000
0.94285714 0.00000000 0.00000000
0.95000000 0.00000000 0.00000000
0.95714286 0.00000000 0.00000000
0.96428571 0.00000000 0.00000000
0.97142857 0.00000000 0.00000000
0.97857143 0.00000000 0.00000000
0.98571429 0.00000000 0.00000000
0.99285714 0.00000000 0.00000000
1.00000000 0.00000000 0.00000000
1.00714286 0.00000000 0.00000000
1.01428571 0.00000000 0.00000000
0.00000000 0.00714286 0.00000000
0.00714286 0.00714286 0.00000000
0.01428571 0.00714286 0.00000000
0.02142857 0.00714286 0.00000000
0.02857143 0.00714286 0.00000000
0.03571429 0.00714286 0.00000000
0.04285714 0.00714286 0.00000000
0.05000000 0.00714286 0.00000000
0.05714286 0.00714286 0.00000000
0.06428571 0.00714286 0.00000000
0.07142857 0.00714286 0.00000000
0.07857143 0.00714286 0.00000000
0.08571429 0.00714286 0.00000000
0.09285714 0.00714286 0.00000000
0.10000000 0.00714286 0.00000000
0.10714286 0.00714286 0.00000000
0.11428571 0.00714286 0.00000000
0.12142857 0.00714286 0.00000000
0.12857143 0.00714286 0.00000000
0.13571429 0.00714286 0.00000000
0.14285714 0.00714286 0.00000000
0.15000000 0.00714286 0.00000000
0.15714286 0.00714286 0.00000000
0.16428571 0.00714286 0.00000000
0.17142857 0.00714286 0.00000000
0.17857143 0.00714286 0.00000000
0.18571429 0.00714286 0.00000000
0.19285714 0.00714286 0.00000000
0.20000000 0.00714286 0.00000000
0.20714286 0.00714286 0.00000000
0.21428571 0.00714286 0.00000000
0.22142857 0.00714286 0.00000000
0.22857143 0.00714286 0.00000000
0.23571429 0.00714286 0.00000000
0.24285714 0.00714286 0.00000000
0.25000000 0.00714286 0.00000000
0.25714286 0.00714286 0.00000000
0.26428571 0.00714286 0.00000000
0.27142857 0.00714286 0.00000000
0.27857143 0.00714286 0.00000000
0.28571429 0.00714286 0.00000000
0.29285714 0.00714286 0.00000000
0.30000000 0.00714286 0.00000000
0.30714286 0.00714286 0.00000000
0.31428571 0.00714286 0.00000000
0.32142857 0.00714286 0.00000000
0.32857143 0.00714286 0.00000000
0.33571429 0.00714286 0.00000000
0.34285714 0.00714286 0.00000000
0.35000000 0.00714286 0.00000000
0.35714286 0.00714286 0.00000000
0.36428571 0.00714286 0.00000000
0.37142857 0.00714286 0.00000000
0.37857143 0.00714286 0.00000000
0.38571429 0.00714286 0.00000000
0.39285714 0.00714286 0.00000000
0.40000000 0.00714286 0.00000000
0.40714286 0.00714286 0.00000000
0.41428571 0.00714286 0.00000000
0.42142857 0.00714286 0.00000000
0.42857143 0.00714286 0.00000000
0.43571429 0.00714286 0.00000000
0.44285714 0.00714286 0.00000000
0.45000000 0.00714286 0.00000000
0.45714286 0.00714286 0.00000000
0.46428571 0.00714286 0.00000000
0.47142857 0.00714286 0.00000000
0.47857143 0.00714286 0.00000000
0.48571429 0.00714286 0.00000000
0.49285714 0.00714286 0.00000000
0.50000000 0.00714286 0.00000000
0.50714286 0.00714286 0.00000000
0.51428571 0.00714286 0.00000000
0.52142857 0.00714286 0.00000000
0.52857143 0.00714286 0.00000000
0.53571429 0.00714286 0.00000000
0.54285714 0.00714286 0.00000000
0.55000000 0.00714286 0.00000000
0.55714286 0.00714286 0.00000000
0.56428571 0.00714286 0.00000000
0.57142857 0.00714286 0.00000000
0.57857143 0.00714286 0.00000000
0.58571429 0.00714286 0.00000000
0.59285714 0.00714286 0.00000000
0.60000000 0.00714286 0.00000000
0.60714286 0.00714286 0.00000000
0.61428571 0.00714286 0.00000000
0.62142857 0.00714286 0.00000000
0.62857143 0.00714286 0.00000000
0.63571429 0.00714286 0.00000000
0.64285714 0.00714286 0.00000000
0.65000000 0.00714286 0.00000000
0.65714286 0.00714286 0.00000000
0.66428571 0.00714286 0.00000000
0.67142857 0.00714286 0.00000000
0.67857143 0.00714286 0.00000000
0.68571429 0.00714286 0.00000000
0.69285714 0.00714286 0.00000000
0.70000000 0.00714286 0.00000000
0.70714286 0.00714286 0.00000000
0.71428571 0.00714286 0.00000000
0.72142857 0.00714286 0.00000000
0.72857143 0.00714286 0.00000000
0.73571429 0.00714286 0.00000000
0.74285714 0.00714286 0.00000000
0.75000000 0.00714286 0.00000000
0.75714286 0.00714286 0.00000000
0.76428571 0.00714286 0.00000000
0.77142857 0.00714286 0.00000000
0.77857143 0.00714286 0.00000000
0.78571429 0.00714286 0.00000000
0.79285714 0.00714286 0.00000000
0.80000000 0.00714286 0.00000000
0.80714286 0.00714286 0.00000000
0.81428571 0.00714286 0.00000000
0.82142857 0.00714286 0.00000000
0.82857143 0.00714286 0.00000000
0.83571429 0.00714286 0.00000000
0.84285714 0.00714286 0.00000000
0.85000000 0.00714286 0.00000000
0.85714286 0.00714286 0.00000000
0.86428571 0.00714286 0.00000000
0.87142857 0.00714286 0.00000000
0.87857143 0.00714286 0.00000000
0.88571429 0.00714286 0.00000000
0.89285714 0.00714286 0.00000000
0.90000000 0.00714286 0.00000000
0.90714286 0.00714286 0.00000000
0.91428571 0.00714286 0.00000000
0.92142857 0.00714286 0.00000000
0.92857143 0.00714286 0.00000000
0.93571429 0.00714286 0.00000000
0.94285714 0.00714286 0.00000000
0.95000000 0.00714286 0.00000000
0.95714286 0.00714286 0.00000000
0.96428571 0.00714286 0.00000000
0.97142857 0.00714286 0.00000000
0.97857143 0.00714286 0.00000000
0.98571429 0.00714286 0.00000000
0.99285714 0.00714286 0.00000000
1.00000000 0.00714286 0.00000000
1.00714286 0.00714286 0.00000000
1.01428571 0.00714286 0.00000000
0.00000000 0.01428571 0.00000000
0.00714286 0.01428571 0.00000000
0.01428571 0.01428571 0.00000000
0.02142857 0.01428571 0.00000000
0.02857143 0.01428571 0.00000000
0.03571429 0.01428571 0.00000000
0.04285714 0.01428571 0.00000000
0.05000000 0.01428571 0.00000000
0.05714286 0.01428571 0.00000000
0.06428571 0.01428571 0.00000000
0.07142857 0.01428571 0.00000000
0.07857143 0.01428571 0.00000000
0.08571429 0.01428571 0.00000000
[...]
CELL_DATA 20164
SCALARS pressure double 
 LOOKUP_TABLE default
0.00000000
0.00000000
0.00000000
0.00000000
0.00000000
0.00000000
0.00000000
0.00000000
0.00000000
0.00000000
0.00000000
0.00000000
0.00000000
0.00000000
0.00000000
0.00000000
0.00000000
0.00000000
0.00000000
0.00000000
0.00000000
0.00000000
0.00000000
0.00000000
0.00000000
0.00000000
0.00000000
0.00000000
0.00000000
0.00000000
0.00000000
0.00000000
0.00000000
0.00000000
0.00000000
0.00000000
0.00000000
0.00000000
0.00000000
0.00000000
0.00000000
0.00000000
0.00000000
0.00000000
0.00000000
0.00000000
0.00000000
0.00000000
0.00000000
0.00000000
0.00000000
0.00000000
0.00000000
0.00000000
0.00000000
0.00000000
0.00000000
0.00000000
0.00000000
0.00000000
0.00000000
0.00000000
0.00000000
0.00000000
0.00000000
0.00000000
0.00000000
0.00000000
0.00000000
0.00000000
0.00000000
0.00000000
0.00000000
0.00000000
0.00000000
0.00000000
0.00000000
0.00000000
0.00000000
0.00000000
0.00000000
0.00000000
0.00000000
0.00000000
0.00000000
0.00000000
0.00000000
0.00000000
0.00000000
0.00000000
0.00000000
0.00000000
0.00000000
0.00000000
0.00000000
0.00000000
0.00000000
0.00000000
0.00000000
0.00000000
0.00000000
0.00000000
0.00000000
0.00000000
0.00000000
0.00000000
0.00000000
0.00000000
0.00000000
0.00000000
0.00000000
0.00000000
0.00000000
0.00000000
0.00000000
0.00000000
0.00000000
0.00000000
0.00000000
0.00000000
0.00000000
0.00000000
0.00000000
0.00000000
0.00000000
0.00000000
0.00000000
0.00000000
0.00000000
0.00000000
0.00000000
0.00000000
0.00000000
0.00000000
0.00000000
0.00000000
0.00000000
0.00000000
0.00000000
0.00000000
0.00000000
0.00000000
0.00000000
-0.07722959
-0.07719050
-0.07711236
-0.07699520
-0.07683908
-0.07664408
-0.07641031
-0.07613788
-0.07582695
-0.07547768
-0.07509024
-0.07466485
-0.07420172
-0.07370110
-0.07316325
-0.07258845
-0.07197700
-0.07132923
-0.07064546
-0.06992606
-0.06917141
-0.06838188
-0.06755790
-0.06669989
-0.06580830
-0.06488359
-0.06392624
-0.06293674
-0.06191560
-0.06086335
-0.05978054
-0.05866771
-0.05752545
-0.05635433
-0.05515496
-0.05392795
-0.05267393
-0.05139354
-0.05008743
-0.04875626
-0.04740071
-0.04602147
-0.04461924
-0.04319473
-0.04174866
-0.04028176
-0.03879477
-0.03728844
-0.03576353
-0.03422080
-0.03266103
-0.03108500
-0.02949350
-0.02788733
-0.02626728
-0.02463418
-0.02298884
-0.02133207
-0.01966471
-0.01798757
-0.01630151
-0.01460735
-0.01290594
-0.01119813
-0.00948476
-0.00776668
-0.00604475
-0.00431982
-0.00259275
-0.00086439
0.00086439
0.00259275
0.00431982
0.00604475
0.00776668
0.00948476
0.01119813
0.01290594
0.01460735
0.01630151
0.01798757
0.01966471
0.02133207
0.02298884
0.02463418
0.02626728
0.02788733
0.02949350
0.03108500
0.03266103
0.03422080
0.03576353
0.03728844
0.03879477
0.04028176
0.04174866
0.04319473
0.04461924
0.04602147
0.04740071
0.04875626
0.05008743
0.05139354
0.05267393
0.05392795
0.05515496
0.05635433
0.05752545
0.05866771
0.05978054
0.06086335
0.06191560
0.06293674
0.06392624
0.06488359
0.06580830
0.06669989
0.06755790
0.06838188
0.06917141
0.06992606
0.07064546
0.07132923
0.07197700
0.07258845
0.07316325
0.07370110
0.07420172
0.07466485
0.07509024
0.07547768
0.07582695
0.07613788
0.07641031
0.07664408
0.07683908
0.07699520
0.07711236
0.07719050
0.07722959
0.00000000
0.00000000
-0.07726867
-0.07722957
-0.07715138
-0.07703416
-0.07687795
-0.07668285
-0.07644896
-0.07617639
-0.07586530
-0.07551584
-0.07512820
-0.07470258
-0.07423921
-0.07373833
-0.07320020
-0.07262510
-0.07201333
-0.07136522
-0.07068110
-0.06996132
-0.06920627
-0.06841634
-0.06759193
-0.06673348
-0.06584142
-0.06491623
-0.06395838
-0.06296837
-0.06194671
-0.06089392
-0.05981055
-0.05869715
-0.05755430
-0.05638259
-0.05518260
-0.05395497
-0.05270031
-0.05141926
-0.05011248
-0.04878063
-0.04742440
-0.04604446
-0.04464152
-0.04321629
-0.04176949
-0.04030185
-0.03881411
-0.03730703
-0.03578134
-0.03423784
-0.03267729
-0.03110047
-0.02950817
-0.02790119
-0.02628034
-0.02464643
-0.02300026
-0.02134267
-0.01967447
-0.01799651
-0.01630960
-0.01461460
-0.01291235
-0.01120369
-0.00948946
-0.00777053
-0.00604775
-0.00432197
-0.00259404
-0.00086482
0.00086482
0.00259404
0.00432197
0.00604775
0.00777053
0.00948946
0.01120369
0.01291235
0.01461460
0.01630960
0.01799651
0.01967447
0.02134267
0.02300026
0.02464643
0.02628034
0.02790119
0.02950817
0.03110047
0.03267729
0.03423784
0.03578134
0.03730703
0.03881411
0.04030185
0.04176949
0.04321629
0.04464152
0.04604446
0.04742440
0.04878063
0.05011248
0.05141926
0.05270031
0.05395497
0.05518260
0.05638259
0.05755430
0.05869715
0.05981055
0.06089392
0.06194671
0.06296837
0.06395838
0.06491623
0.06584142
0.06673348
0.06759193
0.06841634
0.06920627
0.06996132
0.07068110
0.07136522
0.07201333
0.07262510
0.07320020
0.07373833
0.07423921
0.07470258
0.07512820
0.07551584
0.07586530
0.07617639
0.07644896
0.07668285
0.07687795
0.07703416
0.07715138
0.07722957
0.07726867
0.00000000
0.00000000
-0.07734685
-0.07730771
-0.07722944
-0.07711209
-0.07695573
-0.07676042
-0.07652628
-0.07625343
-0.07594201
-0.07559218
-0.07520414
-0.07477807
-0.07431422
-0.07381281
-0.07327411
-0.07269841
-0.07208601
-0.07143722
-0.07075238
-0.07003186
-0.06927602
-0.06848527
-0.06766000
-0.06680066
-0.06590768
-0.06498153
-0.06402269
-0.06303166
-0.06200894
-0.06095507
-0.05987059
-0.05875605
-0.05761202
-0.05643911
-0.05523790
-0.05400900
-0.05275306
-0.05147071
-0.05016260
-0.04882940
-0.04747179
-0.04609046
-0.04468610
-0.04325943
-0.04181116
-0.04034204
-0.03885280
-0.03734420
-0.03581699
-0.03427193
-0.03270981
-0.03113141
-0.02953752
-0.02792894
-0.02630647
-0.02467092
-0.02302311
-0.02136387
-0.01969401
-0.01801437
-0.01632579
-0.01462911
-0.01292516
-0.01121480
-0.00949888
-0.00777824
-0.00605375
-0.00432625
-0.00259661
-0.00086568
0.00086568
0.00259661
0.00432625
0.00605375
0.00777824
0.00949888
0.01121480
0.01292516
0.01462911
0.01632579
0.01801437
0.01969401
0.02136387
0.02302311
0.02467092
0.02630647
0.02792894
0.02953752
0.03113141
0.03270981
0.03427193
0.03581699
0.03734420
0.03885280
0.04034204
0.04181116
0.04325943
0.04468610
0.04609046
0.04747179
0.04882940
0.05016260
0.05147071
0.05275306
0.05400900
0.05523790
0.05643911
0.05761202
0.05875605
0.05987059
0.06095507
0.06200894
0.06303166
0.06402269
0.06498153
0.06590768
0.06680066
0.06766000
0.06848527
0.06927602
0.07003186
0.07075238
0.07143722
0.07208601
0.07269841
0.07327411
0.07381281
0.07431422
0.07477807
0.07520414
0.07559218
0.07594201
0.07625343
0.07652628
0.07676042
0.07695573
0.07711209
0.07722944
0.07730771
0.07734685
0.00000000
0.00000000
-0.07746418
-0.07742497
-0.07734658
-0.07722905
-0.07707244
-0.07687682
-0.07664231
-0.07636903
-0.07605712
-0.07570675
-0.07531809
-0.07489136
-0.07442677
-0.07392458
-0.07338504
-0.07280843
-0.07219507
-0.07154526
-0.07085936
-0.07013771
-0.06938069
-0.06858870
-0.06776215
-0.06690147
-0.06600711
-0.06507952
-0.06411920
-0.06312663
-0.06210233
-0.06104684
-0.05996068
-0.05884442
-0.05769864
-0.05652392
-0.05532087
-0.05409009
-0.05283223
-0.05154792
-0.05023781
-0.04890258
-0.04754291
-0.04615947
-0.04475298
-0.04332415
-0.04187369
-0.04040235
-0.03891086
-0.03739998
-0.03587047
-0.03432309
-0.03275862
-0.03117785
-0.02958156
-0.02797057
-0.02634567
-0.02470768
-0.02305740
-0.02139568
-0.01972333
-0.01804119
-0.01635009
-0.01465087
-0.01294439
-0.01123148
-0.00951301
-0.00778981
-0.00606275
-0.00433268
-0.00260047
-0.00086697
0.00086697
0.00260047
0.00433268
0.00606275
0.00778981
0.00951301
0.01123148
0.01294439
0.01465087
0.01635009
0.01804119
0.01972333
0.02139568
0.02305740
0.02470768
0.02634567
0.02797057
0.02958156
0.03117785
0.03275862
0.03432309
0.03587047
0.03739998
0.03891086
0.04040235
0.04187369
0.04332415
0.04475298
0.04615947
0.04754291
0.04890258
0.05023781
0.05154792
0.05283223
0.05409009
0.05532087
0.05652392
0.05769864
0.05884442
0.05996068
0.06104684
0.06210233
0.06312663
0.06411920
0.06507952
0.06600711
0.06690147
0.06776215
0.06858870
0.06938069
0.07013771
0.07085936
0.07154526
0.07219507
0.07280843
0.07338504
0.07392458
0.07442677
0.07489136
0.07531809
0.07570675
0.07605712
0.07636903
0.07664231
0.07687682
0.07707244
0.07722905
0.07734658
0.07742497
0.07746418
0.00000000
0.00000000
-0.07762071
-0.07758142
-0.07750287
-0.07738509
-0.07722815
-0.07703212
-0.07679712
-0.07652326
-0.07621070
-0.07585959
-0.07547012
-0.07504249
-0.07457693
-0.07407369
-0.07353302
-0.07295521
-0.07234057
-0.07168941
-0.07100207
-0.07027892
-0.06952033
-0.06872670
-0.06789844
-0.06703597
-0.06613976
-0.06521026
-0.06424795
-0.06325333
-0.06222693
-0.06116926
-0.06008087
-0.05896232
-0.05781419
-0.05663707
-0.05543156
-0.05419827
-0.05293785
-0.05165092
-0.05033815
-0.04900021
-0.04763778
-0.04625154
-0.04484221
-0.04341049
-0.04195711
-0.04048280
-0.03898832
-0.03747440
-0.03594181
-0.03439133
-0.03282373
-0.03123979
-0.02964032
-0.02802611
-0.02639797
-0.02475671
-0.02310315
-0.02143812
-0.01976244
-0.01807695
-0.01638249
-0.01467991
-0.01297004
-0.01125373
-0.00953185
-0.00780524
-0.00607476
-0.00434127
-0.00260562
-0.00086868
0.00086868
0.00260562
0.00434127
0.00607476
0.00780524
0.00953185
0.01125373
0.01297004
0.01467991
0.01638249
0.01807695
0.01976244
0.02143812
0.02310315
0.02475671
0.02639797
0.02802611
0.02964032
0.03123979
0.03282373
0.03439133
0.03594181
0.03747440
0.03898832
0.04048280
0.04195711
0.04341049
0.04484221
0.04625154
0.04763778
0.04900021
0.05033815
0.05165092
0.05293785
0.05419827
0.05543156
0.05663707
0.05781419
0.05896232
0.06008087
0.06116926
0.06222693
0.06325333
0.06424795
0.06521026
0.06613976
0.06703597
0.06789844
0.06872670
0.06952033
0.07027892
0.07100207
0.07168941
0.07234057
0.07295521
0.07353302
0.07407369
0.07457693
0.07504249
0.07547012
0.07585959
0.07621070
0.07652326
0.07679712
0.07703212
0.07722815
0.07738509
0.07750287
0.07758142
0.07762071
0.00000000
0.00000000
-0.07781653
-0.07777714
-0.07769838
-0.07758029
-0.07742294
-0.07722640
-0.07699078
-0.07671621
-0.07640282
-0.07605079
-0.07566030
-0.07523156
-0.07476478
-0.07426022
-0.07371814
-0.07313883
-0.07252258
-0.07186973
-0.07118061
-0.07045558
-0.06969502
-0.06889933
-0.06806892
-0.06720422
-0.06630569
-0.06537379
-0.06440900
-0.06341183
-0.06238278
-0.06132240
-0.06023122
-0.05910980
-0.05795874
-0.05677861
-0.05557002
-0.05433359
-0.05306996
-0.05177976
-0.05046367
-0.04912233
-0.04775645
-0.04636671
-0.04495382
-0.04351849
-0.04206145
-0.04058344
-0.03908520
-0.03756748
-0.03603105
-0.03447669
-0.03290517
-0.03131728
-0.02971381
-0.02809558
-0.02646338
-0.02481804
-0.02316037
-0.02149120
-0.01981136
-0.01812169
-0.01642303
-0.01471623
-0.01300212
-0.01128157
-0.00955542
-0.00782454
-0.00608978
-0.00435200
-0.00261206
-0.00087083
0.00087083
0.00261206
0.00435200
0.00608978
0.00782454
0.00955542
0.01128157
0.01300212
0.01471623
0.01642303
0.01812169
0.01981136
0.02149120
0.02316037
0.02481804
0.02646338
0.02809558
0.02971381
0.03131728
0.03290517
0.03447669
0.03603105
0.03756748
0.03908520
0.04058344
0.04206145
0.04351849
0.04495382
0.04636671
0.04775645
0.04912233
0.05046367
0.05177976
0.05306996
0.05433359
0.05557002
0.05677861
0.05795874
0.05910980
0.06023122
0.06132240
0.06238278
0.06341183
0.06440900
0.06537379
0.06630569
0.06720422
0.06806892
0.06889933
0.06969502
0.07045558
0.07118061
0.07186973
0.07252258
0.07313883
0.07371814
0.07426022
0.07476478
0.07523156
0.07566030
0.07605079
0.07640282
0.07671621
0.07699078
0.07722640
0.07742294
0.07758029
0.07769838
0.07777714
0.07781653
0.00000000
0.00000000
-0.07805174
-0.07801223
-0.07793322
-0.07781476
-0.07765691
-0.07745975
-0.07722340
-0.07694796
-0.07663359
-0.07628046
-0.07588874
-0.07545865
-0.07499042
-0.07448428
-0.07394050
-0.07335938
-0.07274121
-0.07208632
-0.07139505
-0.07066776
-0.06990484
-0.06910667
-0.06827369
-0.06740631
-0.06650500
-0.06557021
-0.06460245
-0.06360220
-0.06256998
-0.06150633
-0.06041179
-0.05928694
-0.05813235
-0.05694860
-0.05573632
-0.05449612
-0.05322863
-0.05193451
-0.05061441
-0.04926901
-0.04789898
-0.04650503
-0.04508787
-0.04364821
-0.04218677
-0.04070430
-0.03920155
-0.03767927
-0.03613823
-0.03457921
-0.03300298
-0.03141034
-0.02980208
-0.02817901
-0.02654194
-0.02489169
-0.02322908
-0.02155495
-0.01987011
-0.01817542
-0.01647172
-0.01475984
-0.01304065
-0.01131499
-0.00958373
-0.00784772
-0.00610782
-0.00436489
-0.00261980
-0.00087341
0.00087341
0.00261980
0.00436489
0.00610782
0.00784772
0.00958373
0.01131499
0.01304065
0.01475984
0.01647172
0.01817542
0.01987011
0.02155495
0.02322908
0.02489169
0.02654194
0.02817901
0.02980208
0.03141034
0.03300298
0.03457921
0.03613823
0.03767927
0.03920155
0.04070430
0.04218677
0.04364821
0.04508787
0.04650503
0.04789898
0.04926901
0.05061441
0.05193451
0.05322863
0.05449612
0.05573632
0.05694860
0.05813235
0.05928694
0.06041179
0.06150633
0.06256998
0.06360220
0.06460245
0.06557021
0.06650500
0.06740631
0.06827369
0.06910667
0.06990484
0.07066776
0.07139505
0.07208632
0.07274121
0.07335938
0.07394050
0.07448428
0.07499042
0.07545865
0.07588874
0.07628046
0.07663359
0.07694796
0.07722340
0.07745975
0.07765691
0.07781476
0.07793322
0.07801223
0.07805174
0.00000000
0.00000000
-0.07832647
-0.07828681
-0.07820751
-0.07808862
-0.07793019
-0.07773231
-0.07749509
-0.07721865
-0.07690313
-0.07654870
-0.07615556
-0.07572390
-0.07525395
-0.07474597
-0.07420021
-0.07361697
-0.07299656
-0.07233929
-0.07164551
-0.07091558
-0.07014989
-0.06934884
-0.06851284
-0.06764234
-0.06673777
-0.06579962
-0.06482837
-0.06382453
-0.06278861
-0.06172114
-0.06062269
-0.05949382
-0.05833510
-0.05714714
-0.05593054
-0.05468593
-0.05341395
-0.05211524
-0.05079046
-0.04944030
-0.04806544
-0.04666657
-0.04524442
-0.04379969
-0.04233312
-0.04084545
-0.03933743
-0.03780983
-0.03626340
-0.03469893
-0.03311720
-0.03151901
-0.02990515
-0.02827644
-0.02663369
-0.02497771
-0.02330933
-0.02162939
-0.01993872
-0.01823817
-0.01652857
-0.01481078
-0.01308564
-0.01135403
-0.00961679
-0.00787478
-0.00612888
-0.00437994
-0.00262883
-0.00087642
0.00087642
0.00262883
0.00437994
0.00612888
0.00787478
0.00961679
0.01135403
0.01308564
0.01481078
0.01652857
0.01823817
0.01993872
0.02162939
0.02330933
0.02497771
0.02663369
0.02827644
0.02990515
0.03151901
0.03311720
0.03469893
0.03626340
0.03780983
0.03933743
0.04084545
0.04233312
0.04379969
0.04524442
0.04666657
0.04806544
0.04944030
0.05079046
0.05211524
0.05341395
0.05468593
0.05593054
0.05714714
0.05833510
0.05949382
0.06062269
0.06172114
0.06278861
0.06382453
0.06482837
0.06579962
0.06673777
0.06764234
0.06851284
0.06934884
0.07014989
0.07091558
0.07164551
0.07233929
0.07299656
0.07361697
0.07420021
0.07474597
0.07525395
0.07572390
0.07615556
0.07654870
0.07690313
0.07721865
0.07749509
0.07773231
0.07793019
0.07808862
0.07820751
0.07828681
0.07832647
0.00000000
0.00000000
-0.07864086
-0.07860103
-0.07852140
-0.07840201
-0.07824292
-0.07804422
-0.07780600
-0.07752841
-0.07721157
-0.07685567
-0.07646089
-0.07602743
-0.07555553
-0.07504543
-0.07449741
-0.07391175
-0.07328876
-0.07262876
-0.07193211
-0.07119916
-0.07043031
-0.06962595
-0.06878651
-0.06791242
-0.06700413
-0.06606213
-0.06508690
-0.06407894
-0.06303878
-0.06196695
-0.06086402
-0.05973054
-0.05856711
-0.05737431
-0.05615278
-0.05490312
-0.05362598
-0.05232202
-0.05099190
-0.04963629
-0.04825589
-0.04685140
-0.04542354
-0.04397301
-0.04250057
-0.04100695
-0.03949291
-0.03795920
-0.03640661
-0.03483591
-0.03324789
-0.03164335
-0.03002309
-0.02838792
-0.02673865
-0.02507612
-0.02340114
-0.02171457
-0.02001722
-0.01830995
-0.01659361
-0.01486905
-0.01313712
-0.01139869
-0.00965461
-0.00790575
-0.00615298
-0.00439716
-0.00263917
-0.00087987
0.00087987
0.00263917
0.00439716
0.00615298
0.00790575
0.00965461
0.01139869
0.01313712
0.01486905
0.01659361
0.01830995
0.02001722
0.02171457
0.02340114
0.02507612
0.02673865
0.02838792
0.03002309
0.03164335
0.03324789
0.03483591
0.03640661
0.03795920
0.03949291
0.04100695
0.04250057
0.04397301
0.04542354
0.04685140
0.04825589
0.04963629
0.05099190
0.05232202
0.05362598
0.05490312
0.05615278
0.05737431
0.05856711
0.05973054
0.06086402
0.06196695
0.06303878
0.06407894
0.06508690
0.06606213
0.06700413
0.06791242
0.06878651
0.06962595
0.07043031
0.07119916
0.07193211
0.07262876
0.07328876
0.07391175
0.07449741
0.07504543
0.07555553
0.07602743
0.07646089
0.07685567
0.07721157
0.07752841
0.07780600
0.07804422
0.07824292
0.07840201
0.07852140
0.07860103
0.07864086
0.00000000
0.00000000
-0.07899507
-0.07895505
-0.07887505
-0.07875510
-0.07859526
-0.07839563
-0.07815630
-0.07787740
-0.07755908
-0.07720152
-0.07680489
-0.07636940
-0.07589530
-0.07538282
-0.07483224
-0.07424385
-0.07361796
-0.07295489
-0.07225500
-0.07151866
-0.07074624
-0.06993815
-0.06909483
-0.06821669
-0.06730422
-0.06635787
-0.06537814
-0.06436555
-0.06332061
-0.06224387
-0.06113588
-0.05999722
-0.05882847
-0.05763023
-0.05640313
-0.05514779
-0.05386485
-0.05255497
-0.05121882
-0.04985708
-0.04847044
-0.04705961
-0.04562531
-0.04416826
-0.04268920
-0.04118887
-0.03966804
-0.03812747
-0.03656793
-0.03499021
-0.03339510
-0.03178341
-0.03015593
-0.02851348
-0.02685689
-0.02518697
-0.02350456
-0.02181051
-0.02010564
-0.01839081
-0.01666688
-0.01493469
-0.01319511
-0.01144899
-0.00969721
-0.00794063
-0.00618013
-0.00441656
-0.00265081
-0.00088375
0.00088375
0.00265081
0.00441656
0.00618013
0.00794063
0.00969721
0.01144899
0.01319511
0.01493469
0.01666688
0.01839081
0.02010564
0.02181051
0.02350456
0.02518697
0.02685689
0.02851348
0.03015593
0.03178341
0.03339510
0.03499021
0.03656793
0.03812747
0.03966804
0.04118887
0.04268920
0.04416826
0.04562531
0.04705961
0.04847044
0.04985708
0.05121882
0.05255497
0.05386485
0.05514779
0.05640313
0.05763023
0.05882847
0.05999722
0.06113588
0.06224387
0.06332061
0.06436555
0.06537814
0.06635787
0.06730422
0.06821669
0.06909483
0.06993815
0.07074624
0.07151866
0.07225500
0.07295489
0.07361796
0.07424385
0.07483224
0.07538282
0.07589530
0.07636940
0.07680489
0.07720152
0.07755908
0.07787740
0.07815630
0.07839563
0.07859526
0.07875510
0.07887505
0.07895505
0.07899507
0.00000000
0.00000000
-0.07938929
-0.07934907
-0.07926865
-0.07914807
-0.07898741
-0.07878674
-0.07854616
-0.07826582
-0.07794585
-0.07758643
-0.07718774
-0.07675000
-0.07627344
-0.07575831
-0.07520489
-0.07461346
-0.07398433
-0.07331785
-0.07261436
-0.07187422
-0.07109783
-0.07028560
-0.06943794
-0.06855531
-0.06763817
-0.06668698
-0.06570226
-0.06468450
-0.06363424
-0.06255203
-0.06143841
-0.06029398
-0.05911931
-0.05791502
-0.05668172
-0.05542005
-0.05413065
-0.05281419
-0.05147133
-0.05010276
-0.04870918
-0.04729130
-0.04584983
-0.04438552
-0.04289909
-0.04139130
-0.03986291
-0.03831469
-0.03674743
-0.03516190
-0.03355891
-0.03193925
-0.03030374
-0.02865320
-0.02698844
-0.02531031
-0.02361963
-0.02191725
-0.02020402
-0.01848078
-0.01674840
-0.01500772
-0.01325962
-0.01150496
-0.00974461
-0.00797944
-0.00621033
-0.00443814
-0.00266376
-0.00088807
0.00088807
0.00266376
0.00443814
0.00621033
0.00797944
0.00974461
0.01150496
0.01325962
0.01500772
0.01674840
0.01848078
0.02020402
0.02191725
0.02361963
0.02531031
0.02698844
0.02865320
0.03030374
0.03193925
0.03355891
0.03516190
0.03674743
0.03831469
0.03986291
0.04139130
0.04289909
0.04438552
0.04584983
0.04729130
0.04870918
0.05010276
0.05147133
0.05281419
0.05413065
0.05542005
0.05668172
0.05791502
0.05911931
0.06029398
0.06143841
0.06255203
0.06363424
0.06468450
0.06570226
0.06668698
0.06763817
0.06855531
0.06943794
0.07028560
0.07109783
0.07187422
0.07261436
0.07331785
0.07398433
0.07461346
0.07520489
0.07575831
0.07627344
0.07675000
0.07718774
0.07758643
0.07794585
0.07826582
0.07854616
0.07878674
0.07898741
0.07914807
0.07926865
0.07934907
0.07938929
0.00000000
0.00000000
-0.07982373
-0.07978328
-0.07970240
-0.07958114
-0.07941956
-0.07921774
-0.07897580
-0.07869386
-0.07837207
-0.07801060
-0.07760964
-0.07716942
-0.07669015
-0.07617210
-0.07561554
-0.07502075
-0.07438807
-0.07371782
-0.07301035
-0.07226604
-0.07148527
-0.07066846
-0.06981604
-0.06892845
-0.06800616
-0.06704964
-0.06605940
-0.06503596
-0.06397984
-0.06289159
-0.06177177
-0.06062098
-0.05943979
-0.05822882